# vtk DataFile Version 2.0
gauge_2
ASCII
DATASET POLYDATA
POINTS 85 double
0.2 0.0329993 0.005
0.2 0.0359992 0.005
0.2 0.0389992 0.005
0.2 0.0419991 0.005
0.2 0.044999 0.005
0.2 0.047999 0.005
0.2 0.0543799 0.005
0.2 0.0607609 0.005
0.2 0.0671419 0.005
0.2 0.0735228 0.005
0.2 0.0799038 0.005
0.2 0.0862847 0.005
0.2 0.0926657 0.005
0.2 0.0990467 0.005
0.2 0.105428 0.005
0.2 0.111809 0.005
0.2 0.11819 0.005
0.2 0.124571 0.005
0.2 0.130952 0.005
0.2 0.137332 0.005
0.2 0.143713 0.005
0.2 0.150094 0.005
0.2 0.156475 0.005
0.2 0.162856 0.005
0.2 0.169237 0.005
0.2 0.175618 0.005
0.2 0.181999 0.005
0.2 0.18838 0.005
0.2 0.194761 0.005
0.2 0.201142 0.005
0.2 0.207523 0.005
0.2 0.213904 0.005
0.2 0.220285 0.005
0.2 0.226666 0.005
0.2 0.233047 0.005
0.2 0.239428 0.005
0.2 0.245809 0.005
0.2 0.25219 0.005
0.2 0.258571 0.005
0.2 0.264952 0.005
0.2 0.271333 0.005
0.2 0.277714 0.005
0.2 0.284095 0.005
0.2 0.290476 0.005
0.2 0.296857 0.005
0.2 0.303238 0.005
0.2 0.309619 0.005
0.2 0.315999 0.005
0.2 0.32238 0.005
0.2 0.328761 0.005
0.2 0.335142 0.005
0.2 0.341523 0.005
0.2 0.347904 0.005
0.2 0.354285 0.005
0.2 0.360666 0.005
0.2 0.367047 0.005
0.2 0.373428 0.005
0.2 0.379809 0.005
0.2 0.38619 0.005
0.2 0.392571 0.005
0.2 0.398952 0.005
0.2 0.405333 0.005
0.2 0.411714 0.005
0.2 0.418095 0.005
0.2 0.424476 0.005
0.2 0.430857 0.005
0.2 0.437238 0.005
0.2 0.443619 0.005
0.2 0.45 0.005
0.2 0.456381 0.005
0.2 0.462762 0.005
0.2 0.469143 0.005
0.2 0.475524 0.005
0.2 0.481905 0.005
0.2 0.488286 0.005
0.2 0.494666 0.005
0.2 0.501047 0.005
0.2 0.507428 0.005
0.2 0.513809 0.005
0.2 0.52019 0.005
0.2 0.526571 0.005
0.2 0.532952 0.005
0.2 0.539333 0.005
0.2 0.545714 0.005
0.2 0.552095 0.005
POINT_DATA 85
 FIELD attributes 1
alpha.water 1 85 float
1 1 1 0.998292 0.981576 0.963057 0.763361 0.361219 0.419662 0.768721 0.846659 0.506083 0.0851905 0.00023872 0.000212634 0.000209656 0.000617483 0.010764 0.0753104 0.133495 0.129175 0.0644641 0.00384595 0.000351459 0.00120981 0.00676083 0.0116934 0.00602536 0.000119258 6.1773e-06 0.00020564 0.000407527 0.00195422 0.00361271 0.00380087 0.00383097 0.00290846 0.0010837 9.02694e-05 2.15431e-05 9.30509e-08 2.29901e-10 2.32616e-10 1.53164e-10 3.32601e-11 1.28998e-11 9.08601e-12 8.21427e-12 1.09816e-11 9.2831e-11 2.31025e-09 1.91774e-06 4.15363e-05 4.53665e-05 6.27478e-06 1.23019e-06 0.00042048 0.00359671 0.00644847 0.00482001 0.00160189 5.34289e-05 -6.62075e-11 8.17289e-12 1.5252e-11 1.33075e-11 5.22887e-12 1.36269e-12 7.20579e-13 8.14188e-13 1.84585e-12 3.08819e-12 2.95956e-12 2.45231e-12 7.14689e-12 7.8046e-11 2.34307e-10 4.22443e-10 4.19591e-10 2.63853e-10 1.50787e-10 5.31274e-11 7.10871e-12 2.21624e-13 2.19595e-15
