# vtk DataFile Version 2.0
gauge_2
ASCII
DATASET POLYDATA
POINTS 85 double
0.2 0.0329993 0.005
0.2 0.0359992 0.005
0.2 0.0389992 0.005
0.2 0.0419991 0.005
0.2 0.044999 0.005
0.2 0.047999 0.005
0.2 0.0543799 0.005
0.2 0.0607609 0.005
0.2 0.0671419 0.005
0.2 0.0735228 0.005
0.2 0.0799038 0.005
0.2 0.0862847 0.005
0.2 0.0926657 0.005
0.2 0.0990467 0.005
0.2 0.105428 0.005
0.2 0.111809 0.005
0.2 0.11819 0.005
0.2 0.124571 0.005
0.2 0.130952 0.005
0.2 0.137332 0.005
0.2 0.143713 0.005
0.2 0.150094 0.005
0.2 0.156475 0.005
0.2 0.162856 0.005
0.2 0.169237 0.005
0.2 0.175618 0.005
0.2 0.181999 0.005
0.2 0.18838 0.005
0.2 0.194761 0.005
0.2 0.201142 0.005
0.2 0.207523 0.005
0.2 0.213904 0.005
0.2 0.220285 0.005
0.2 0.226666 0.005
0.2 0.233047 0.005
0.2 0.239428 0.005
0.2 0.245809 0.005
0.2 0.25219 0.005
0.2 0.258571 0.005
0.2 0.264952 0.005
0.2 0.271333 0.005
0.2 0.277714 0.005
0.2 0.284095 0.005
0.2 0.290476 0.005
0.2 0.296857 0.005
0.2 0.303238 0.005
0.2 0.309619 0.005
0.2 0.315999 0.005
0.2 0.32238 0.005
0.2 0.328761 0.005
0.2 0.335142 0.005
0.2 0.341523 0.005
0.2 0.347904 0.005
0.2 0.354285 0.005
0.2 0.360666 0.005
0.2 0.367047 0.005
0.2 0.373428 0.005
0.2 0.379809 0.005
0.2 0.38619 0.005
0.2 0.392571 0.005
0.2 0.398952 0.005
0.2 0.405333 0.005
0.2 0.411714 0.005
0.2 0.418095 0.005
0.2 0.424476 0.005
0.2 0.430857 0.005
0.2 0.437238 0.005
0.2 0.443619 0.005
0.2 0.45 0.005
0.2 0.456381 0.005
0.2 0.462762 0.005
0.2 0.469143 0.005
0.2 0.475524 0.005
0.2 0.481905 0.005
0.2 0.488286 0.005
0.2 0.494666 0.005
0.2 0.501047 0.005
0.2 0.507428 0.005
0.2 0.513809 0.005
0.2 0.52019 0.005
0.2 0.526571 0.005
0.2 0.532952 0.005
0.2 0.539333 0.005
0.2 0.545714 0.005
0.2 0.552095 0.005
POINT_DATA 85
 FIELD attributes 1
alpha.water 1 85 float
1 1 1 1 1 1 1 1 1 0.987332 0.681235 0.193908 2.35082e-06 1.8708e-07 3.75424e-07 6.42699e-07 2.37501e-06 1.77419e-05 2.05702e-05 4.95815e-06 4.24525e-07 1.26419e-06 1.64753e-06 8.70945e-07 1.30634e-07 2.51961e-09 3.98445e-10 1.08455e-10 3.94018e-11 5.93366e-05 0.000142959 0.000163638 9.66782e-05 1.72479e-05 6.2202e-07 6.42247e-08 5.49491e-08 9.84084e-06 2.85419e-05 3.693e-05 2.22984e-05 7.47413e-06 7.7614e-06 1.40068e-05 5.15467e-05 0.000298492 0.000372373 0.000143135 3.8499e-05 2.01473e-05 3.998e-05 6.71593e-05 9.75537e-05 7.21905e-05 1.0806e-05 1.82189e-08 1.52235e-09 2.47243e-10 1.34031e-10 8.64568e-11 3.7405e-11 8.76065e-12 9.15333e-13 3.927e-14 1.75089e-15 1.39838e-16 1.19268e-17 7.53503e-19 3.89678e-20 1.85444e-21 9.18011e-23 3.39682e-24 1.62301e-25 5.7839e-27 3.02163e-28 1.25952e-29 5.51647e-31 1.13698e-32 6.07894e-34 1.73984e-35 8.71354e-37 2.00362e-38 1.09311e-39 3.08089e-41 1.38144e-42
