/*--------------------------------*- C++ -*----------------------------------*\
| =========                 |                                                 |
| \\      /  F ield         | OpenFOAM: The Open Source CFD Toolbox           |
|  \\    /   O peration     | Version:  v1912                                 |
|   \\  /    A nd           | Website:  www.openfoam.com                      |
|    \\/     M anipulation  |                                                 |
\*---------------------------------------------------------------------------*/
FoamFile
{
    version     2.0;
    format      ascii;
    class       volScalarField;
    location    "0.3";
    object      alpha.water;
}
// * * * * * * * * * * * * * * * * * * * * * * * * * * * * * * * * * * * * * //

dimensions      [0 0 0 0 0 0 0];


internalField   nonuniform List<scalar> 
9072
(
1
1
1
1
1
1
1
1
1
1
1
1
1
1
1
1
1
1
1
0.991077
0.819688
0.998283
0.998278
1
1
1
1
1
1
1
1
1
1
1
1
1
1
1
1
1
1
1
1
0.99326
0.954432
0.830149
1
1
1
1
1
1
1
1
1
1
1
1
1
1
1
1
1
1
1
1
1
0.931998
0.828299
1
1
1
1
1
1
1
1
1
1
1
1
1
1
1
1
1
1
1
1
1
0.997291
0.944359
1
1
1
1
1
1
1
1
1
1
1
1
1
1
1
1
1
1
1
1
1
1
0.999986
1
1
1
1
1
1
1
1
1
1
1
1
1
1
1
1
1
1
1
1
1
1
1
1
1
1
1
1
1
1
1
1
1
1
1
1
1
1
1
1
1
1
1
1
1
1
1
1
1
1
1
1
1
1
1
1
1
1
1
1
1
1
1
1
1
1
1
1
1
8.21331e-35
3.10103e-34
3.40401e-32
3.51516e-35
2.92984e-38
2.83227e-41
2.84869e-44
2.48023e-47
1.64507e-50
7.47635e-54
1.92942e-57
3.39958e-61
6.06808e-65
9.62412e-69
1.09467e-72
7.4377e-77
3.17769e-81
6.11819e-86
2.52026e-91
1.54454e-30
6.28174e-28
9.08038e-27
8.01649e-30
7.62023e-33
8.31505e-36
8.86346e-39
8.26914e-42
6.27495e-45
3.70702e-48
1.76088e-51
7.02657e-55
2.58968e-58
7.89253e-62
1.53687e-65
1.22439e-69
6.3959e-74
2.03299e-79
1.93337e-84
2.76221e-26
1.21928e-22
2.04795e-22
1.77915e-25
1.62735e-28
1.55438e-31
1.46863e-34
1.25522e-37
8.94501e-41
5.22601e-44
2.47836e-47
1.03295e-50
3.65892e-54
9.38092e-58
1.11355e-61
6.63642e-66
5.67922e-70
1.06125e-74
-2.96368e-80
3.88104e-21
2.2827e-18
1.17038e-18
1.10677e-21
1.0605e-24
7.38303e-28
5.05968e-31
3.43729e-34
2.19058e-37
1.24507e-40
5.88841e-44
2.43051e-47
9.20874e-51
2.19794e-54
1.72011e-58
2.05451e-62
1.57341e-66
2.7527e-71
-3.66137e-77
1.09853e-16
1.24608e-14
2.57815e-15
1.70556e-18
1.06491e-21
6.88727e-25
4.82804e-28
2.94044e-31
1.55333e-34
8.43854e-38
4.15363e-41
1.44221e-44
4.98777e-48
7.60301e-52
1.01747e-55
1.29039e-59
8.73696e-64
1.1264e-68
-6.0228e-74
2.43719e-13
9.14467e-13
7.42075e-13
6.39196e-15
1.02694e-18
4.90742e-22
2.21203e-25
1.15254e-28
1.08182e-31
1.17303e-34
5.26759e-38
1.11712e-41
3.55604e-45
6.26534e-49
1.026e-52
8.83775e-57
4.62875e-61
4.46733e-66
-9.0132e-71
2.85278e-11
9.36392e-10
3.28312e-09
1.91708e-13
5.55415e-17
1.83642e-20
1.61443e-23
7.32215e-26
3.45251e-28
7.78408e-31
5.58886e-34
9.83064e-38
1.7437e-41
3.12303e-45
7.96246e-49
2.46938e-53
-1.57588e-57
-2.07623e-61
-2.08368e-66
0.000163651
5.21321e-06
1.53383e-10
6.13414e-14
3.68673e-16
3.4957e-18
4.87898e-20
3.05529e-22
1.16706e-24
2.84055e-27
3.30009e-30
1.01801e-33
1.16195e-37
2.54059e-41
6.29919e-45
4.27651e-49
-2.54164e-53
-2.0568e-57
-3.98829e-62
1
1
1
1
1
1
1
1
1
1
1
1
1
1
1
1
1
1
1
1
1
1
1
1
1
1
1
1
1
1
1
1
1
1
1
1
1
1
1
1
1
1
1
1
1
1
1
1
1
1
1
1
1
1
1
1
1
1
1
1
1
1
1
1
1
1
1
1
1
1
1
1
1
1
1
1
1
0.999999
0.999998
0.999994
0.999986
0.999953
0.999881
0.996681
0.963055
0.918166
0.927383
1
1
1
1
1
0.999999
0.999978
0.999988
0.999985
0.999978
0.999967
0.999933
0.999822
0.999591
0.978675
0.852893
0.575947
0.253528
0.0343523
2.59249e-07
1.06899e-08
1.2978e-09
-1.98414e-06
0.000208541
0.0275068
0.297651
0.846454
0.999999
0.952083
0.850367
0.9015
0.842116
0.745208
0.592097
0.367404
0.166028
0.0146621
1.51415e-07
9.3288e-07
1.89475e-07
2.01991e-08
1.98309e-09
1.08634e-09
1.0524e-09
1.05172e-09
1.08697e-09
3.77438e-06
4.88799e-05
0.000496896
0.00051583
0.002923
-4.44811e-14
0
-8.05316e-46
0
0
-2.18609e-13
-7.62597e-13
-1.16242e-12
-2.4469e-10
1.33896e-07
9.31786e-07
8.53945e-06
1.86334e-06
1.05116e-08
1.55503e-09
1.0593e-09
1.05186e-09
0.00127521
0.00161309
0.00155814
0.000788635
0.000174984
3.31927e-06
-1.40221e-18
-8.64872e-17
-3.29994e-15
-5.34168e-14
-3.9881e-13
-1.42199e-12
-1.63554e-12
-1.58709e-12
-1.04625e-09
0.000117524
0.00055917
2.14367e-06
8.49971e-08
9.4496e-08
8.9398e-09
6.98998e-09
1.05822e-09
0.000855837
0.000208526
2.49659e-07
2.70487e-08
6.24908e-09
1.69478e-09
-3.49172e-19
-1.06462e-16
-5.2733e-15
-8.40086e-14
-5.54678e-13
-1.34622e-12
6.79288e-13
-1.10466e-16
0.000117245
0.000819063
2.95532e-05
3.25352e-08
1.14101e-08
2.37068e-06
0.000198237
0.000244413
1.18336e-08
1.37667e-06
2.55069e-07
1.89046e-07
1.40477e-08
5.87748e-10
3.71517e-10
-2.78571e-19
-9.55763e-17
-5.37981e-15
-8.41596e-14
-4.97437e-13
-5.30585e-13
1.4832e-11
2.87679e-13
0.000837979
0.000105044
8.37213e-07
4.99905e-07
9.25072e-09
0.000555288
0.000558174
0.000558205
0.00025921
1.51536e-06
6.47005e-06
5.74613e-06
5.67717e-09
3.66067e-10
1.98422e-10
-2.30749e-19
-7.18172e-17
-4.10905e-15
-6.16205e-14
-3.16098e-13
3.0278e-13
2.3737e-11
5.02154e-11
8.72353e-05
0.000426016
1.92971e-06
1.14429e-06
8.34736e-09
0.000113459
0.000132701
9.50683e-05
0.000123361
0.000156459
1.47507e-06
6.31708e-09
1.94069e-10
9.23599e-11
2.90487e-11
-1.37196e-19
-4.39187e-17
-2.40708e-15
-3.35925e-14
-1.42037e-13
9.55608e-13
2.40606e-11
1.12454e-11
6.09387e-09
0.000318485
3.96001e-07
1.59768e-07
8.0342e-09
4.99955e-09
1.60032e-05
2.63451e-05
8.22829e-06
2.71757e-11
4.21127e-12
3.60485e-12
3.30077e-12
2.33578e-12
6.76028e-13
-5.87315e-20
-2.07494e-17
-1.0607e-15
-1.33871e-14
-4.34376e-14
3.27865e-13
1.81708e-11
9.86208e-12
6.75733e-08
1.01799e-11
4.52153e-06
1.02526e-07
2.40476e-07
8.85277e-09
3.21405e-10
3.71745e-09
1.06458e-08
7.38345e-10
5.14966e-12
2.47554e-12
9.05106e-13
2.27251e-13
2.70196e-14
-1.7965e-20
-7.18632e-18
-3.382e-16
-3.75226e-15
-8.46823e-15
3.55955e-14
2.99704e-12
9.94836e-12
1.6507e-12
4.20084e-12
5.42795e-12
2.42429e-07
2.14563e-07
1.12204e-11
1.57977e-10
6.08615e-12
8.28247e-13
3.20909e-13
1.76211e-14
4.84619e-16
3.77542e-17
9.64711e-18
3.86152e-17
-3.75949e-21
-1.72227e-18
-7.37856e-17
-6.98852e-16
-9.71759e-16
1.75069e-15
2.37676e-13
2.45977e-12
2.30644e-12
1.09331e-12
1.82795e-11
6.03804e-14
6.03804e-14
1.6493e-12
1.56897e-12
8.2402e-14
1.15995e-15
1.21578e-17
6.37388e-19
6.50246e-20
7.26438e-20
2.01133e-18
3.99646e-17
-4.91591e-22
-2.64244e-19
-1.01635e-17
-7.98646e-17
-6.42327e-17
4.47761e-17
1.12333e-14
1.68922e-13
2.58165e-13
1.56646e-13
1.05722e-11
3.84227e-13
7.90224e-13
4.08775e-12
1.81425e-12
1.52656e-14
3.06511e-17
4.66583e-19
1.11354e-23
-4.44741e-20
-4.6775e-20
3.32501e-18
8.79195e-17
-3.41728e-23
-2.29907e-20
-7.82109e-19
-4.9935e-18
-2.71468e-18
1.49907e-18
3.53546e-16
5.74279e-15
8.05869e-15
8.42891e-15
9.46215e-14
2.94406e-15
1.80649e-13
6.97162e-13
7.79385e-14
4.63593e-17
3.20677e-19
7.41304e-22
-3.09826e-20
-3.17879e-19
-7.58168e-19
2.27176e-18
1.187e-16
-9.26222e-25
-9.18487e-22
-2.7351e-20
-1.41133e-19
-5.96061e-20
8.45028e-20
9.11541e-18
9.34084e-17
1.71755e-16
2.08507e-16
3.21108e-16
5.22646e-17
2.01942e-15
3.75742e-15
4.01024e-16
2.14939e-19
0
-1.06474e-20
-1.38395e-19
-1.23867e-18
-3.33453e-18
5.27956e-36
2.08468e-16
-4.02429e-27
-1.0578e-23
-2.75316e-22
-1.14907e-21
-3.79054e-22
2.27128e-21
1.62809e-19
1.21943e-18
2.57877e-18
2.98093e-18
1.97478e-18
2.03088e-19
1.81414e-19
1.12594e-18
0
-7.94976e-20
-3.5568e-20
-2.3948e-20
-3.79963e-19
-3.28137e-18
-8.34972e-18
-4.89529e-19
6.24361e-16
-1.20963e-33
-5.75851e-33
-1.37835e-32
-6.92819e-31
1.90673e-29
2.89875e-23
1.39765e-21
9.11509e-21
1.75802e-20
2.01552e-20
1.41775e-20
2.00905e-38
-2.98437e-21
-1.22078e-20
-7.94761e-21
-2.71684e-21
-1.186e-21
-3.06403e-20
-7.7097e-19
-6.1255e-18
-1.34075e-17
1.19934e-17
2.53853e-15
-1.20052e-35
-1.7396e-34
-6.68073e-33
-3.94562e-31
-9.24564e-30
1.05762e-25
5.58491e-24
3.4808e-23
6.4139e-23
4.94403e-23
-4.09609e-23
-6.73665e-22
-1.17736e-21
-8.59385e-22
-3.76294e-22
-1.23169e-22
-8.76393e-22
-4.83521e-20
-1.14951e-18
-8.09409e-18
-1.37758e-17
1.19763e-16
1.13191e-14
-4.19724e-39
-1.10334e-35
-2.05416e-33
-1.37683e-31
-3.93102e-30
-5.16811e-30
8.75929e-27
1.44811e-25
2.13321e-25
-1.71846e-24
-3.19646e-23
-9.75439e-23
-1.1128e-22
-6.77985e-23
-2.61813e-23
-1.64437e-23
-1.03093e-21
-5.65271e-20
-1.24268e-18
-7.47666e-18
-8.04184e-18
5.63492e-16
3.7813e-14
-4.87128e-40
-1.62764e-36
-3.60494e-34
-2.67073e-32
-8.87089e-31
-1.52996e-29
-8.85035e-29
-8.96551e-28
-2.75747e-26
-5.01862e-25
-2.64754e-24
-5.0284e-24
-4.6928e-24
-2.54636e-24
-9.25815e-25
-8.60037e-24
-9.14156e-22
-4.81951e-20
-9.60764e-19
-4.69584e-18
-5.46244e-19
1.84122e-15
1.02917e-13
-2.39122e-41
-1.27901e-37
-3.00979e-35
-2.40915e-33
-8.87283e-32
-1.80887e-30
-2.4282e-29
-2.70658e-28
-3.04514e-27
-2.14697e-26
-6.48707e-26
-9.30633e-26
-7.54408e-26
-3.7486e-26
-3.89466e-26
-5.3943e-24
-5.89582e-22
-3.00776e-20
-5.34782e-19
-1.93357e-18
7.66917e-18
4.96384e-15
2.53264e-13
-2.65108e-43
-3.28039e-39
-7.97135e-37
-6.69085e-35
-2.60085e-33
-5.5185e-32
-7.30327e-31
-6.52236e-30
-3.78282e-29
-1.31662e-28
-2.71063e-28
-3.38874e-28
-2.62621e-28
-1.59964e-28
-1.18958e-26
-2.52033e-24
-2.91636e-22
-1.5373e-20
-2.53789e-19
-5.41152e-19
2.00903e-17
1.21955e-14
6.37152e-13
-1.56078e-47
-6.47528e-42
-1.25525e-39
-8.51397e-38
-2.72099e-36
-4.73582e-35
-4.8799e-34
-3.13152e-33
-1.28769e-32
-3.43468e-32
-5.95409e-32
-6.71696e-32
-6.45944e-32
-9.43064e-30
-3.9418e-27
-1.02035e-24
-1.46282e-22
-9.54624e-21
-1.74229e-19
-1.65471e-19
5.54182e-17
3.25171e-14
1.73834e-12
-2.36221e-54
-2.34049e-48
-4.73604e-46
-3.52346e-44
-1.29153e-42
-2.68245e-41
-3.41497e-40
-2.79366e-39
-1.51406e-38
-5.59328e-38
-1.48161e-37
-2.37988e-36
-2.64314e-33
-2.39412e-30
-1.45312e-27
-5.35085e-25
-1.04507e-22
-8.69762e-21
-1.77621e-19
-5.28507e-20
1.66073e-16
8.99662e-14
4.31736e-12
-2.30857e-63
-6.62313e-56
-1.41874e-53
-1.10972e-51
-4.25882e-50
-9.25492e-49
-1.2364e-47
-1.0667e-46
-6.15583e-46
-2.85349e-44
-1.02155e-40
-2.99309e-37
-6.24365e-34
-8.62596e-31
-7.32688e-28
-3.50454e-25
-8.36744e-23
-7.99339e-21
-1.64288e-19
7.75237e-20
3.38204e-16
1.85524e-13
8.2484e-12
-1.32283e-74
-1.34759e-65
-3.81007e-63
-3.9385e-61
-1.99614e-59
-5.71247e-58
-1.10675e-56
-1.97063e-53
-2.52825e-49
-2.30572e-45
-1.46148e-41
-6.28879e-38
-1.77897e-34
-3.17889e-31
-3.39503e-28
-1.99466e-25
-5.64574e-23
-5.97756e-21
-1.13164e-19
3.39478e-19
4.55054e-16
2.70097e-13
1.29475e-11
-5.86376e-80
-1.16554e-73
-6.51096e-71
-1.41283e-68
-1.63677e-66
-9.27603e-64
-3.21865e-59
-8.46475e-55
-1.51254e-50
-1.8641e-46
-1.58202e-42
-9.12655e-39
-3.46189e-35
-8.26744e-32
-1.15994e-28
-8.67869e-26
-2.94412e-23
-3.35816e-21
-5.18969e-20
3.94938e-19
4.77241e-16
3.16221e-13
1.80564e-11
-1.93125e-86
-1.57059e-79
-1.27209e-76
-4.10926e-74
-3.79026e-71
-3.32759e-66
-2.29143e-61
-1.02527e-56
-3.04092e-52
-6.04055e-48
-8.0194e-44
-7.078e-40
-4.03466e-36
-1.41033e-32
-2.77986e-29
-2.73175e-26
-1.09934e-23
-1.27691e-21
-1.30238e-20
2.87102e-19
4.01279e-16
3.20377e-13
2.18376e-11
-2.4649e-94
-3.01136e-86
-3.51926e-83
-1.78113e-79
-1.65633e-74
-2.53596e-69
-3.45081e-64
-3.14036e-59
-1.85573e-54
-7.08565e-50
-1.75231e-45
-2.74344e-41
-2.67459e-37
-1.49854e-33
-4.33999e-30
-5.55077e-27
-2.51409e-24
-2.68379e-22
-1.03829e-21
1.69756e-19
2.66246e-16
2.49878e-13
2.30385e-11
-2.38749e-97
-1.098e-90
-2.76036e-85
-2.85148e-80
-1.58821e-75
-5.43952e-71
-1.27009e-66
-3.4493e-62
-2.91598e-57
-2.67891e-52
-1.56188e-47
-5.20456e-43
-9.50836e-39
-8.7191e-35
-3.52419e-31
-5.39031e-28
-2.43601e-25
-1.87552e-23
1.53457e-23
7.10444e-20
1.43844e-16
1.52896e-13
1.96551e-11
-4.97203e-99
-6.40492e-92
-1.87049e-86
-2.24808e-81
-1.45932e-76
-5.8207e-72
-1.51883e-67
-2.65116e-63
-3.19191e-59
-5.52379e-55
-5.21109e-50
-3.80311e-45
-1.27885e-40
-1.79782e-36
-9.55888e-33
-1.64122e-29
-6.52987e-27
-1.49829e-25
4.8856e-24
2.58052e-20
5.38702e-17
6.95236e-14
1.31593e-11
-2.43136e-102
-4.4605e-94
-1.88301e-88
-3.09344e-83
-2.66241e-78
-1.38132e-73
-4.63953e-69
-1.03255e-64
-1.53428e-60
-1.4875e-56
-1.34212e-52
-9.14746e-48
-6.64213e-43
-1.98844e-38
-2.46838e-34
-1.15469e-30
-1.54616e-27
-2.89503e-25
1.99844e-24
1.09072e-20
2.66564e-17
3.18221e-14
7.00651e-12
-1.77379e-107
-8.50216e-98
-7.46784e-92
-2.12352e-86
-2.99526e-81
-2.50382e-76
-1.35024e-71
-4.82802e-67
-1.14274e-62
-1.75784e-58
-1.69051e-54
-1.94057e-50
-4.84593e-45
-6.3864e-40
-2.50195e-35
-2.90006e-31
-8.36374e-28
-3.62306e-25
-6.39409e-40
6.47126e-22
2.87818e-18
5.78664e-15
1.23012e-12
-1.59931e-114
-1.07072e-102
-2.86609e-96
-1.66034e-90
-4.33146e-85
-6.60364e-80
-6.47602e-75
-4.20876e-70
-1.81709e-65
-5.0856e-61
-8.89395e-57
-9.16226e-53
-4.73635e-48
-2.86121e-42
-4.22184e-37
-1.52122e-32
-9.26095e-29
-9.92148e-26
-7.95558e-24
9.22818e-23
3.36571e-19
4.33363e-16
2.34777e-13
-1.41258e-124
-9.7444e-109
-1.16674e-101
-1.57877e-95
-8.40189e-90
-2.49667e-84
-4.78621e-79
-6.2028e-74
-5.40676e-69
-3.07285e-64
-1.08771e-59
-2.24799e-55
-2.50754e-51
-2.00793e-46
-2.6446e-40
-3.35992e-35
-4.22661e-31
-1.30637e-27
-1.23148e-24
-2.57384e-22
-2.41987e-21
-1.22633e-20
7.49231e-16
-7.1413e-142
-3.26434e-116
-2.47206e-108
-8.68875e-102
-1.00897e-95
-6.33781e-90
-2.62873e-84
-7.63299e-79
-1.55611e-73
-2.1725e-68
-1.93137e-63
-1.01941e-58
-2.88286e-54
-4.09402e-50
-1.09216e-45
-3.33625e-40
-1.24653e-35
-1.15646e-31
-4.01077e-28
-5.71045e-25
-3.83803e-22
-9.00929e-20
-5.57553e-20
-8.57076e-172
-5.49795e-126
-5.30273e-117
-6.16381e-110
-1.86717e-103
-2.90318e-97
-2.9938e-91
-2.34616e-85
-1.38954e-79
-6.00821e-74
-1.79237e-68
-3.17308e-63
-2.99245e-58
-1.33274e-53
-3.0598e-49
-3.2211e-45
-9.19787e-42
1.10747e-39
-2.68667e-37
-2.88623e-35
-3.42213e-31
-5.77613e-32
5.87911e-23
-1.34782e-201
-8.9034e-140
-4.82443e-129
-2.82345e-121
-2.99578e-114
-1.51578e-107
-5.09951e-101
-1.32036e-94
-2.74474e-88
-4.47933e-82
-5.11e-76
-3.75685e-70
-1.49708e-64
-2.84692e-59
-1.89762e-54
-4.09081e-50
-6.09141e-46
-6.25553e-42
-3.1553e-38
-6.82921e-35
-4.01064e-37
-3.09149e-30
-5.85846e-26
0
-1.63358e-163
-1.71997e-149
-1.08637e-140
-7.88196e-133
-2.55091e-125
-5.44963e-118
-9.07978e-111
-1.24093e-103
-1.3843e-96
-1.19528e-89
-6.98832e-83
-2.40827e-76
-3.96037e-70
-2.06404e-64
-2.66697e-59
-1.20237e-54
-2.61138e-50
-4.3865e-46
-6.04565e-42
-5.02474e-38
-2.84515e-35
-3.98941e-32
1
0.0903402
0.0413819
0.00193733
1
0.999746
0.983124
0.967335
1
0.999999
0.999994
0.999989
1
1
1
1
1
1
1
1
0.118721
0.288884
0.532847
0.785312
-2.41464e-06
6.45992e-06
5.01795e-05
9.26962e-05
2.48223e-09
8.47464e-09
6.80449e-08
3.23351e-07
3.15002e-10
2.36446e-10
1.62202e-10
2.06365e-10
1.89388e-10
1.87782e-10
1.80223e-10
1.46233e-10
9.37981e-12
7.21272e-12
7.43223e-12
9.44483e-12
1.35355e-13
7.09902e-14
3.99987e-14
2.93926e-14
3.35511e-15
3.34278e-15
3.83783e-15
6.20418e-15
2.9838e-16
7.77607e-16
1.99522e-15
4.87798e-15
3.80303e-16
1.04489e-15
2.85394e-15
7.47589e-15
1.1671e-15
3.60006e-15
1.07934e-14
2.99891e-14
1.80064e-15
5.62518e-15
1.67708e-14
4.56269e-14
3.92676e-15
1.26689e-14
3.85198e-14
1.07293e-13
1.20835e-14
3.8991e-14
1.20701e-13
3.47473e-13
4.73397e-14
1.52803e-13
4.80953e-13
1.31086e-12
1.92026e-13
6.24486e-13
1.92999e-12
6.3168e-12
6.48673e-13
2.13537e-12
7.55144e-12
3.4232e-11
1.93001e-12
6.52666e-12
2.59361e-11
7.93307e-11
5.13118e-12
1.97559e-11
7.08758e-11
9.39392e-11
1.34766e-11
7.01237e-11
9.95138e-11
9.38382e-10
4.21946e-11
1.4631e-10
1.0348e-10
4.89586e-09
1.0208e-10
1.73369e-10
1.3451e-10
2.19744e-09
1.48462e-10
1.71497e-10
1.39797e-10
3.0753e-09
1.63582e-10
1.63783e-10
1.45484e-07
1.5049e-08
1.60404e-10
1.58743e-10
4.20887e-07
1.02504e-07
1.29773e-10
9.05758e-09
1.08619e-07
6.55509e-07
2.13292e-10
1.64924e-08
4.06324e-07
2.08233e-05
2.47015e-10
2.40659e-08
7.75739e-07
3.08325e-05
2.32611e-10
1.40701e-08
5.45091e-07
2.14593e-05
1.0232e-10
1.77568e-08
4.35401e-07
1.44384e-05
1.63508e-10
1.65589e-08
4.89529e-07
8.28765e-06
5.49281e-11
6.33483e-09
1.72534e-07
2.95972e-06
-3.21882e-13
2.63619e-11
1.02227e-09
2.2996e-08
-1.19209e-15
-3.45791e-14
-1.72372e-13
-4.15142e-13
-7.91012e-20
8.71763e-20
-1.73025e-16
5.53407e-15
-5.52368e-23
-1.62613e-21
-3.76639e-20
2.75514e-16
-8.31853e-28
-3.18316e-25
-6.50774e-23
6.45593e-20
0.000533696
3.39184e-08
1.08488e-10
2.79081e-12
3.08517e-14
6.88662e-15
1.64908e-16
9.52797e-19
3.46888e-21
7.38303e-24
1.0036e-26
7.58419e-30
2.23587e-33
1.85876e-37
3.38564e-41
4.53872e-45
6.83607e-49
-2.07869e-53
-2.7275e-58
4.89352e-05
1.33282e-06
2.56032e-07
2.32196e-09
5.68596e-11
1.8411e-12
8.22328e-14
1.05448e-14
4.34976e-17
1.07145e-19
1.18986e-22
9.83992e-26
8.67786e-29
2.21578e-32
1.1163e-36
-5.2067e-42
3.15168e-45
-3.83988e-49
-6.156e-53
0.999866
0.901501
0.0567102
1.63145e-05
2.64867e-07
4.55401e-09
1.043e-10
1.88436e-12
1.41025e-13
9.90651e-16
1.57126e-18
9.40199e-22
8.89011e-25
8.07569e-28
6.27552e-32
1.06116e-35
-7.23789e-40
-1.05109e-43
-9.64885e-48
0.999999
0.999988
0.999801
0.772424
0.0125908
7.47866e-06
2.46872e-07
2.00157e-09
2.20827e-11
7.52659e-13
1.26243e-14
1.03017e-17
4.46834e-21
5.84888e-24
2.54565e-27
5.65218e-31
1.15724e-34
-3.6358e-39
-3.97362e-43
1
1
0.999998
0.999984
0.999695
0.454952
0.000226641
2.08688e-06
3.10106e-08
2.51029e-10
1.8282e-12
9.89498e-14
4.03618e-17
1.89322e-20
7.48104e-24
2.27449e-27
-3.78602e-30
-8.30651e-35
-9.6219e-39
0.999999
0.999999
0.999998
0.999996
0.999993
0.999958
0.964065
0.0332115
2.55682e-05
1.99042e-07
1.58675e-09
9.95267e-12
3.46162e-13
1.40253e-16
5.6975e-20
5.86298e-23
7.19296e-26
-2.60586e-29
-4.32317e-34
0.000315395
0.0779177
0.449283
0.99996
0.999984
0.999952
0.999928
0.999545
0.443293
0.000123421
1.28625e-06
1.04056e-08
4.55423e-11
1.09712e-13
2.21526e-16
8.11181e-20
2.99677e-23
3.95729e-26
-4.56578e-30
3.48831e-07
7.41573e-06
2.53768e-05
0.000178492
0.107481
0.859443
0.999818
0.999613
0.999351
0.788419
0.000626466
7.98027e-06
5.07753e-08
1.92341e-10
6.18178e-13
6.59682e-16
-2.44331e-20
2.03875e-22
-6.21599e-26
1.98183e-09
2.74774e-08
1.18198e-07
3.80079e-07
4.38879e-06
5.0967e-05
0.0297623
0.810724
0.998598
0.997221
0.813246
0.00178441
1.74284e-05
1.33257e-07
9.01574e-10
3.89778e-12
9.03959e-16
-4.91198e-19
-4.08888e-22
5.69474e-11
4.57054e-11
2.27599e-10
1.8801e-09
1.56825e-08
-5.01792e-09
1.42727e-06
4.5232e-05
0.139976
0.99462
0.991515
0.566814
0.00122629
1.90226e-05
2.23381e-07
1.68573e-09
1.50561e-12
-8.08967e-16
-7.90007e-19
1.64333e-11
1.29789e-11
2.74248e-12
3.77739e-12
3.17551e-11
3.75549e-10
-8.63046e-10
7.84182e-08
4.82862e-06
0.0263834
0.981489
0.973212
0.111493
0.000380383
6.50272e-06
6.95912e-08
3.44809e-10
-1.42139e-13
-2.2037e-16
2.62099e-14
7.79301e-14
4.12375e-13
9.04694e-13
2.04159e-12
1.05119e-11
3.38537e-11
-6.66229e-10
6.28606e-09
2.71914e-06
0.141781
0.959825
0.724262
0.00274375
6.29302e-05
9.0415e-07
6.41454e-09
3.86131e-12
-1.51001e-14
1.65311e-14
9.84958e-14
4.11359e-13
1.68878e-12
5.467e-12
1.38451e-11
5.16062e-11
1.02994e-10
2.89061e-10
1.37106e-08
3.68094e-06
0.73533
0.904328
0.0408011
0.000291859
5.3125e-06
4.67857e-08
8.79326e-11
-2.90008e-13
1.49284e-14
9.89061e-14
5.74196e-13
2.58021e-12
1.42407e-11
9.65498e-11
4.17747e-10
7.17958e-10
5.92675e-10
7.15812e-10
1.95717e-08
0.121749
0.884641
0.289213
0.000935953
1.9151e-05
1.8988e-07
3.62535e-10
-1.36169e-12
2.49976e-14
1.68723e-13
7.21962e-13
2.47718e-12
7.53251e-12
3.69364e-11
2.85537e-10
3.56565e-10
5.67241e-09
6.99132e-09
4.47042e-09
2.07868e-07
0.831829
0.543675
0.00178788
3.80255e-05
3.97188e-07
4.53775e-10
-2.17393e-12
1.02905e-13
5.92908e-13
2.32522e-12
1.0461e-11
3.14857e-11
5.94269e-11
2.65293e-10
3.02662e-10
6.64522e-09
1.98954e-08
7.96381e-09
8.61209e-09
0.74693
0.540117
0.00193459
4.11035e-05
4.38193e-07
3.94208e-10
-1.12835e-12
1.51828e-13
8.53999e-13
7.03453e-12
3.63667e-11
9.321e-11
7.72986e-11
8.14463e-11
1.85292e-10
2.01921e-10
1.99897e-08
1.26683e-08
6.36733e-09
0.6486
0.466904
0.00156748
3.00229e-05
2.80134e-07
3.90069e-10
1.22713e-13
3.21621e-13
9.65443e-12
4.13104e-11
3.98467e-11
8.52074e-11
2.10319e-07
5.62145e-08
2.343e-10
2.61567e-10
1.16876e-09
4.39938e-09
4.69889e-09
0.619465
0.357515
0.00100124
1.81425e-05
1.32584e-07
1.6808e-10
5.08163e-13
1.50918e-12
4.44624e-11
5.27089e-11
1.50227e-08
8.41978e-10
2.67759e-09
5.10419e-09
0.000576542
-1.36809e-08
-4.5006e-08
4.27305e-09
4.69889e-09
0.598813
0.228772
0.000521868
6.99839e-06
4.14663e-08
7.00129e-11
6.34821e-13
9.31709e-12
1.17928e-11
1.1199e-10
6.74492e-08
6.29801e-08
3.49168e-07
1.45354e-07
0.000912569
0.000435078
2.33517e-06
9.86433e-08
0.0422998
0.581113
0.0460708
0.000194507
7.36575e-06
2.79849e-08
4.54555e-11
1.35185e-13
2.02723e-11
3.77433e-11
2.86519e-09
1.22733e-08
4.96384e-05
0.000722194
8.92838e-06
0.000923799
0.000933315
4.03119e-06
9.05337e-07
0.479563
0.483645
0.00231168
0.000226054
3.45371e-06
6.13165e-09
1.66786e-11
1.71133e-14
3.97332e-11
7.13639e-10
5.77089e-07
6.41712e-08
1.20795e-05
0.000794852
3.60213e-05
0.000781299
0.00093262
6.36353e-06
0.0524374
0.491226
0.12391
0.000957207
8.14013e-05
6.24614e-07
6.48474e-10
1.93881e-12
2.38579e-15
5.36562e-11
1.97492e-08
5.51713e-06
1.86163e-06
0.00337159
0.000312378
1.00198e-05
1.39246e-05
3.47513e-05
1.64887e-05
0.441243
0.337377
0.00291759
0.000617843
3.95952e-06
6.08772e-09
4.47778e-11
3.26828e-13
4.08644e-16
1.16611e-10
0.000376304
0.000170755
2.33244e-05
0.00358899
0.000103452
6.77629e-06
6.99398e-06
2.46286e-05
0.364432
0.388212
0.00518451
0.00042229
1.11293e-05
1.0521e-07
2.0259e-10
1.07449e-11
5.91313e-14
6.85495e-17
7.89777e-10
0.00355359
0.00228663
4.63149e-05
0.00346915
8.21013e-06
6.43144e-06
6.45852e-06
0.286477
0.357396
0.0124618
0.000660165
4.20307e-05
1.22047e-06
8.46203e-09
3.53621e-11
2.55757e-12
9.10938e-15
1.1306e-17
4.9252e-09
0.0012765
0.00163597
9.46146e-05
0.00582312
7.38499e-06
6.43144e-06
0.23252
0.32041
0.0238716
0.000796921
6.30001e-05
4.18431e-06
9.61749e-08
1.0176e-09
2.08075e-11
2.58679e-13
1.35093e-15
1.771e-18
5.21348e-09
1.38237e-06
0.000669331
0.000111556
0.0502993
3.5301e-05
0.136606
0.28111
0.0223365
0.000707065
6.75732e-05
6.62642e-06
3.70634e-07
9.46103e-09
7.37967e-11
1.57538e-12
3.56613e-14
1.85532e-16
2.75381e-19
1.18962e-05
6.39244e-06
0.0145506
7.02322e-05
7.01851e-05
0.232846
0.249497
0.0315513
0.000576478
5.64267e-05
6.88929e-06
5.53352e-07
2.74914e-08
6.68601e-10
3.66864e-12
1.12459e-13
5.25814e-15
2.79725e-17
4.0223e-20
0.000183996
0.0528715
0.0541211
4.73115e-05
0.00271211
0.239183
0.119226
0.000614198
4.39154e-05
5.3734e-06
5.52558e-07
3.67595e-08
1.76474e-09
2.04464e-11
4.062e-13
3.89015e-14
7.68848e-16
3.39433e-18
4.99458e-21
0.000174467
0.0562083
0.00738565
1.39706e-05
0.00141817
0.00870622
0.000717764
4.13271e-05
3.82085e-06
4.1556e-07
3.48889e-08
2.82272e-09
1.07802e-10
4.3601e-12
6.45041e-14
6.24546e-15
8.62002e-17
3.66978e-19
6.01807e-22
0.000250708
0.000596197
0.000518953
4.79925e-07
0.000104396
0.000112608
5.03146e-05
3.17635e-06
2.52611e-07
2.23673e-08
2.6095e-09
1.91408e-10
1.38475e-11
3.57514e-13
1.00952e-14
7.67423e-16
8.05391e-18
3.88053e-20
6.67707e-23
0.000258163
0.000223758
0.00306579
2.79988e-08
1.09869e-06
3.63551e-06
2.1074e-06
1.59921e-07
1.09803e-08
1.50155e-09
1.8832e-10
2.12441e-11
9.46044e-13
2.44241e-14
1.13247e-15
5.99396e-17
8.56212e-19
3.78667e-21
6.88635e-24
0.000123813
9.45762e-05
0.41737
1.69224e-08
1.14821e-08
1.03323e-07
7.23478e-08
4.54358e-09
6.30601e-10
1.19587e-10
2.24658e-11
1.36191e-12
4.79636e-14
1.40878e-15
1.17147e-16
6.41861e-18
7.72771e-20
3.46436e-22
6.41082e-25
0.000147695
9.45787e-05
0.440757
0.197091
2.34656e-09
1.52946e-09
1.24183e-09
2.09513e-10
6.8131e-11
1.38029e-11
1.35832e-12
8.7823e-14
3.25057e-15
1.18602e-16
1.31151e-17
6.6198e-19
6.39657e-21
2.70128e-23
5.303e-26
7.76307e-05
0.0151605
0.444327
0.443276
0.00395162
3.61836e-11
5.54547e-11
2.60389e-11
5.16478e-12
8.18163e-13
8.62195e-14
5.35319e-15
2.26779e-16
1.47223e-17
1.31235e-18
4.44003e-20
4.37238e-22
1.95195e-24
4.21719e-27
7.70458e-05
0.00594356
0.444327
0.14031
0.00343598
2.41802e-12
9.19028e-12
1.48426e-12
2.92867e-13
4.79195e-14
5.07607e-15
3.05011e-16
1.2479e-17
1.13174e-18
1.04043e-19
2.83482e-21
2.88783e-23
1.35478e-25
2.98405e-28
3.13391e-05
0.00255292
0.00503333
0.00119285
-8.54451e-07
1.11753e-13
4.67643e-13
7.76171e-14
1.66483e-14
2.84242e-15
2.75055e-16
1.49808e-17
6.60275e-19
7.73808e-20
6.54447e-21
1.55399e-22
1.86681e-24
8.31305e-27
1.91935e-29
3.29539e-07
9.77187e-05
8.56457e-05
5.13364e-05
1.65982e-08
5.1303e-15
2.17014e-14
4.41882e-15
1.07992e-15
1.67474e-16
1.33289e-17
7.2856e-19
4.02055e-20
4.7771e-21
4.15368e-22
1.12598e-23
9.68698e-26
4.53543e-28
1.08091e-30
7.64595e-10
4.62153e-07
1.07378e-06
1.28126e-06
1.0014e-09
2.29063e-16
1.06708e-15
2.73076e-16
6.09811e-17
7.68684e-18
6.36609e-19
3.55336e-20
2.4344e-21
3.6115e-22
2.68351e-23
4.65098e-25
4.57113e-27
2.06946e-29
5.57527e-32
3.53409e-13
3.51959e-10
1.08328e-08
2.09016e-08
1.20964e-11
9.49614e-18
5.4056e-17
1.33678e-17
2.57137e-18
3.49628e-19
2.90674e-20
1.64138e-21
1.2898e-22
2.39725e-23
1.30762e-24
1.72636e-26
1.68275e-28
9.6888e-31
2.75413e-33
3.14945e-15
3.81197e-12
4.18194e-11
9.15795e-11
-7.406e-13
2.87309e-18
1.92696e-18
5.15854e-19
1.1404e-19
1.55574e-20
1.25314e-21
7.36886e-23
6.53258e-24
1.0826e-24
5.43684e-26
7.6949e-28
7.36283e-30
3.67928e-32
1.05369e-34
4.27796e-18
2.00689e-14
1.44496e-12
1.25038e-12
-8.73218e-17
1.21646e-19
3.93907e-20
1.34316e-20
3.52628e-21
4.86008e-22
4.13607e-23
2.5515e-24
2.26306e-25
4.33647e-26
2.04949e-27
3.27783e-29
2.45212e-31
1.2432e-33
3.85166e-36
1
1
1
1
1
1
1
1
1
1
1
1
1
1
1
1
1
1
1
0.84919
0.907036
0.998291
0.998265
1
1
1
1
1
1
1
1
1
1
1
1
1
1
1
1
1
1
1
0.999994
0.909657
0.8278
0.993462
1
1
1
1
1
1
1
1
1
1
1
1
1
1
1
1
1
1
1
1
0.999987
0.8278
0.967674
1
1
1
1
1
1
1
1
1
1
1
1
1
1
1
1
1
1
1
1
1
0.887302
0.997803
1
1
1
1
1
1
1
1
1
1
1
1
1
1
1
1
1
1
1
1
1
0.999977
1
1
1
1
1
1
1
1
1
1
1
1
1
1
1
1
1
1
1
1
1
1
1
1
1
1
1
1
1
1
1
1
1
1
1
1
1
1
1
1
1
1
1
1
1
1
1
1
1
1
1
1
1
1
1
1
1
1
1
1
1
1
1
1
1
1
1
1
1
1
1.15797e-35
2.94814e-31
1.33382e-33
3.21964e-37
2.71745e-40
2.45253e-43
2.07361e-46
1.42998e-49
7.11306e-53
2.05238e-56
4.70588e-60
9.72961e-64
1.6594e-67
2.29837e-71
2.25983e-75
1.27962e-79
3.72246e-84
3.16562e-89
1.71279e-91
2.88258e-30
6.30659e-27
2.59287e-29
6.27774e-33
5.26363e-36
4.68229e-39
4.22122e-42
3.44809e-45
2.31649e-48
1.20865e-51
5.03462e-55
1.91763e-58
5.88912e-62
1.46501e-65
3.82668e-69
6.69971e-73
5.24887e-77
1.84543e-81
1.09913e-86
3.59816e-25
4.28769e-22
7.84946e-24
7.75202e-28
1.82522e-31
1.63885e-34
1.43501e-37
1.16907e-40
8.17462e-44
4.41732e-47
1.96275e-50
8.71589e-54
3.20505e-57
9.61396e-61
2.80439e-64
5.10944e-68
3.8166e-72
9.40984e-77
7.63853e-82
3.35347e-20
4.03242e-18
4.25831e-20
3.46969e-23
1.8683e-26
1.89921e-30
8.85717e-34
6.39354e-37
4.28774e-40
2.36521e-43
1.02453e-46
4.57513e-50
1.90356e-53
6.78773e-57
2.16654e-60
3.50303e-64
2.07744e-68
3.05512e-73
5.00561e-78
7.3795e-16
1.40095e-14
7.02841e-17
4.56551e-20
2.39658e-23
9.53458e-27
1.6169e-30
1.11024e-33
6.64347e-37
3.80824e-40
1.62269e-43
6.04363e-47
2.42851e-50
8.75604e-54
2.10188e-57
2.60752e-61
1.54291e-65
2.32866e-70
6.32076e-75
7.04096e-13
1.41668e-12
1.17367e-13
5.82464e-17
2.25701e-20
1.00044e-23
1.41515e-27
7.32106e-31
5.76431e-34
4.1066e-37
1.81536e-40
7.13724e-44
2.74541e-47
7.55106e-51
1.6025e-54
2.22979e-58
1.26276e-62
1.98688e-67
4.0072e-72
1.76074e-11
4.73755e-09
1.18757e-10
3.54974e-15
8.53648e-19
2.25233e-22
2.54717e-25
2.27285e-27
7.98452e-30
1.94403e-33
9.49383e-37
3.43061e-40
1.54103e-43
4.9788e-47
6.91252e-51
1.08429e-54
8.39243e-59
1.44003e-63
1.64808e-68
9.09089e-06
5.07294e-07
2.09752e-12
8.39495e-15
2.11666e-17
2.91607e-20
1.91314e-22
1.34715e-24
5.03922e-27
9.81141e-30
7.53192e-33
2.93712e-36
1.00609e-39
4.06295e-43
1.15891e-46
1.26162e-50
7.81743e-55
1.66848e-59
2.27352e-64
1
1
1
1
1
1
1
1
1
1
1
1
1
1
1
1
1
1
1
1
1
1
1
1
1
1
1
1
1
1
1
1
1
1
1
1
1
1
1
1
1
1
1
1
1
1
1
1
1
1
1
1
1
1
1
1
1
1
1
1
1
1
1
1
1
1
1
1
1
1
1
1
1
1
1
1
0.999999
0.999999
0.999997
0.99999
0.999975
0.99992
0.999845
0.984173
0.93939
0.916732
0.965871
1
1
1
1
1
0.999999
0.999985
0.999988
0.999982
0.999973
0.999956
0.99989
0.999723
0.997502
0.932075
0.738103
0.405442
0.135631
1.29499e-06
5.14554e-08
2.38801e-09
7.75714e-09
7.09218e-05
0.0022219
0.123763
0.547287
0.999989
1
0.952788
0.89559
0.879634
0.797957
0.678955
0.479292
0.261163
0.0867976
3.72417e-08
4.90023e-07
6.13384e-07
6.52415e-08
5.58693e-09
1.23673e-09
1.05745e-09
1.05171e-09
1.05171e-09
3.98055e-07
1.54734e-05
0.000190352
0.00102895
0.000492383
0.0412913
-2.39314e-26
-7.43031e-22
3.62808e-25
-1.41722e-27
-4.36279e-15
-5.43787e-13
-9.60818e-13
-6.13261e-13
1.03034e-08
4.89177e-07
1.30612e-06
6.82127e-06
4.88591e-08
3.31538e-09
1.10928e-09
1.05258e-09
3.36404e-05
0.00161013
0.00161156
0.000901599
0.000638135
3.02346e-06
5.60323e-06
-1.0938e-17
-6.24236e-16
-1.46109e-14
-1.59497e-13
-8.4551e-13
-1.77056e-12
-1.51755e-12
-6.73857e-12
1.12729e-06
0.000482924
0.00020524
3.38289e-07
1.56327e-07
2.38563e-08
4.02144e-08
1.1011e-09
6.1532e-05
0.000792231
1.67951e-06
5.84079e-08
1.22797e-08
2.73497e-09
2.99188e-09
-7.81878e-18
-8.92196e-16
-2.36948e-14
-2.38935e-13
-1.04053e-12
-6.515e-13
1.55364e-12
-8.23829e-11
0.000836955
0.000658847
1.66649e-07
1.75339e-08
1.51206e-08
6.38578e-05
0.000335058
3.82936e-05
2.00077e-06
4.47052e-07
2.16662e-07
1.41612e-07
9.70397e-10
4.49404e-10
3.32728e-10
-6.55396e-18
-8.75491e-16
-2.4225e-14
-2.29981e-13
-8.16851e-13
3.44091e-12
9.01987e-12
3.01495e-05
0.000837979
1.06986e-06
1.57918e-06
1.10333e-08
0.000385944
0.000557284
0.000558421
0.00055799
3.48204e-06
1.11382e-06
7.8493e-06
2.08254e-07
1.09066e-09
2.1165e-10
1.91092e-10
-4.68592e-18
-6.70907e-16
-1.82525e-14
-1.60024e-13
-4.2502e-13
1.11834e-11
1.12325e-11
5.60862e-11
0.000831743
2.04887e-05
2.39332e-06
1.93979e-08
7.97907e-09
0.000166073
9.52792e-05
9.03916e-05
0.000158928
9.00666e-05
5.20029e-08
1.01989e-09
1.03464e-10
5.98099e-11
1.54873e-11
-2.79668e-18
-4.02447e-16
-1.03945e-14
-8.13498e-14
-1.36605e-13
1.26236e-11
1.18836e-11
2.8637e-08
3.60475e-09
0.000132658
1.73844e-07
4.3167e-08
7.28608e-09
7.05505e-06
1.78102e-05
2.07163e-05
3.28911e-07
7.7687e-12
3.7084e-12
3.43826e-12
3.02757e-12
1.40791e-12
3.06574e-13
-1.32284e-18
-1.83365e-16
-4.39738e-15
-2.95486e-14