/*--------------------------------*- C++ -*----------------------------------*\
| =========                 |                                                 |
| \\      /  F ield         | OpenFOAM: The Open Source CFD Toolbox           |
|  \\    /   O peration     | Version:  v1912                                 |
|   \\  /    A nd           | Website:  www.openfoam.com                      |
|    \\/     M anipulation  |                                                 |
\*---------------------------------------------------------------------------*/
FoamFile
{
    version     2.0;
    format      ascii;
    class       surfaceScalarField;
    location    "0.3";
    object      alphaPhi0.water;
}
// * * * * * * * * * * * * * * * * * * * * * * * * * * * * * * * * * * * * * //

dimensions      [0 3 -1 0 0 0 0];
oriented        oriented;


internalField   nonuniform List<scalar> 
17936
(
-4.28411e-07
8.55942e-07
-4.27531e-07
-3.75925e-07
1.94212e-06
-1.56619e-06
-3.77517e-06
5.52702e-06
-1.75185e-06
-7.04597e-06
8.31701e-06
-1.27104e-06
-9.39393e-06
1.035e-05
-9.56064e-07
-1.125e-05
1.21387e-05
-8.88705e-07
-1.30399e-05
1.39608e-05
-9.20954e-07
-1.48987e-05
1.58453e-05
-9.46604e-07
-1.67907e-05
1.77251e-05
-9.34404e-07
-1.86396e-05
1.95263e-05
-8.8668e-07
-2.03779e-05
2.11875e-05
-8.09561e-07
-2.19481e-05
2.26521e-05
-7.04014e-07
-2.32912e-05
2.38557e-05
-5.64549e-07
-2.43349e-05
2.47164e-05
-3.81534e-07
-2.49829e-05
2.51091e-05
-1.26169e-07
-2.50354e-05
2.46583e-05
3.77048e-07
-2.38816e-05
2.25703e-05
1.3113e-06
-2.05234e-05
1.74699e-05
3.05349e-06
-1.31513e-05
7.60839e-06
5.54294e-06
-1.46854e-06
-3.06734e-06
4.73796e-06
3.18886e-06
-6.71417e-07
-2.73905e-06
4.41902e-06
-1.4687e-05
1.02713e-05
1.95137e-05
-1.25104e-05
-6.99874e-06
-1.26862e-06
1.66509e-06
-3.96464e-07
-4.24755e-07
2.01768e-06
3.15651e-06
-4.74944e-06
-3.85823e-06
5.6126e-06
3.52253e-06
-5.27689e-06
-7.13627e-06
8.41828e-06
2.56695e-06
-3.84896e-06
-9.51408e-06
1.04961e-05
1.93964e-06
-2.92163e-06
-1.14264e-05
1.23468e-05
1.80332e-06
-2.72378e-06
-1.32791e-05
1.42296e-05
1.86549e-06
-2.816e-06
-1.51952e-05
1.6168e-05
1.91586e-06
-2.88859e-06
-1.71384e-05
1.80973e-05
1.8918e-06
-2.85075e-06
-1.90364e-05
1.99481e-05
1.79747e-06
-2.70923e-06
-2.08257e-05
2.16624e-05
1.64491e-06
-2.48162e-06
-2.24517e-05
2.31862e-05
1.43616e-06
-2.1706e-06
-2.38577e-05
2.44574e-05
1.16064e-06
-1.76035e-06
-2.49751e-05
2.53993e-05
7.99449e-07
-1.22366e-06
-2.57173e-05
2.59138e-05
3.18277e-07
-5.14774e-07
-2.59718e-05
2.58732e-05
-3.50872e-07
4.49483e-07
-2.56094e-05
2.51888e-05
-1.45151e-06
1.87206e-06
-2.46574e-05
2.41211e-05
-3.77631e-06
4.31262e-06
-2.36727e-05
2.30719e-05
-8.69949e-06
9.30033e-06
-2.1375e-05
1.6972e-05
-1.18576e-05
1.62606e-05
-8.73631e-06
-1.12029e-06
-2.61281e-06
1.26252e-05
9.04121e-06
-1.12172e-05
-1.69824e-05
1.96572e-05
1.15612e-05
-8.77986e-06
1.34104e-05
-1.62566e-05
-2.04119e-06
2.39169e-06
-3.50497e-07
-4.86902e-07
2.08958e-06
6.34697e-06
-7.94965e-06
-3.90602e-06
5.61153e-06
7.01001e-06
-8.71552e-06
-7.08207e-06
8.32374e-06
5.11305e-06
-6.35472e-06
-9.40029e-06
1.03838e-05
3.90386e-06
-4.88738e-06
-1.13308e-05
1.22758e-05
3.65486e-06
-4.59991e-06
-1.32345e-05
1.42093e-05
3.77716e-06
-4.75192e-06
-1.51951e-05
1.61839e-05
3.86835e-06
-4.85707e-06
-1.71667e-05
1.81357e-05
3.81401e-06
-4.78296e-06
-1.90835e-05
2.00036e-05
3.62449e-06
-4.54463e-06
-2.089e-05
2.17364e-05
3.32234e-06
-4.16875e-06
-2.25366e-05
2.32835e-05
2.91022e-06
-3.65712e-06
-2.39693e-05
2.45852e-05
2.36687e-06
-2.98276e-06
-2.51214e-05
2.55673e-05
1.6572e-06
-2.10311e-06
-2.59107e-05
2.61383e-05
7.24762e-07
-9.52378e-07
-2.62356e-05
2.6186e-05
-5.29019e-07
5.78649e-07
-2.59744e-05
2.55872e-05
-2.31862e-06
2.70582e-06
-2.50169e-05
2.42713e-05
-5.09383e-06
5.83943e-06
-2.34057e-05
2.26066e-05
-9.72398e-06
1.05231e-05
-2.22386e-05
2.20765e-05
-1.76392e-05
1.78013e-05
-2.04025e-05
1.50124e-05
-2.2227e-05
2.76171e-05
-8.73883e-06
5.08662e-06
-2.27484e-05
2.62625e-05
-2.93182e-06
1.0593e-06
1.65023e-05
-1.46621e-05
-2.71101e-06
2.99363e-06
-2.82623e-07
-5.8105e-07
2.19077e-06
9.55685e-06
-1.11666e-05
-3.96646e-06
5.59851e-06
1.03872e-05
-1.20192e-05
-6.99354e-06
8.18214e-06
7.57078e-06
-8.75938e-06
-9.23782e-06
1.02297e-05
5.87393e-06
-6.8658e-06
-1.12047e-05
1.2187e-05
5.56215e-06
-6.5444e-06
-1.31837e-05
1.41924e-05
5.74277e-06
-6.75146e-06
-1.52061e-05
1.62168e-05
5.8563e-06
-6.86699e-06
-1.7217e-05
1.82005e-05
5.75878e-06
-6.74225e-06
-1.91616e-05
2.00951e-05
5.47093e-06
-6.40444e-06
-2.09959e-05
2.18583e-05
5.02248e-06
-5.88492e-06
-2.26767e-05
2.3444e-05
4.41336e-06
-5.18074e-06
-2.4153e-05
2.47951e-05
3.61062e-06
-4.25272e-06
-2.5361e-05
2.5841e-05
2.56461e-06
-3.04458e-06
-2.62239e-05
2.64982e-05
1.20155e-06
-1.47583e-06
-2.66517e-05
2.66724e-05
-5.95049e-07
5.7436e-07
-2.65501e-05
2.62785e-05
-3.03508e-06
3.30674e-06
-2.58585e-05
2.53025e-05
-6.48337e-06
7.03936e-06
-2.46348e-05
2.38768e-05
-1.13884e-05
1.21464e-05
-2.30654e-05
2.24624e-05
-1.80724e-05
1.86754e-05
-2.2598e-05
2.33265e-05
-2.89431e-05
2.82146e-05
-2.35692e-05
2.14188e-05
-2.99937e-05
3.1925e-05
-1.58035e-05
9.35914e-06
1.03126e-05
-3.97219e-06
-3.23394e-06
3.42606e-06
-1.92113e-07
-7.03967e-07
2.30996e-06
1.2776e-05
-1.4382e-05
-4.02516e-06
5.56377e-06
1.36067e-05
-1.51453e-05
-6.87054e-06
8.00336e-06
9.91986e-06
-1.10527e-05
-9.04359e-06
1.00534e-05
7.86543e-06
-8.87525e-06
-1.10666e-05
1.20946e-05
7.54881e-06
-8.57676e-06
-1.31355e-05
1.4182e-05
7.77897e-06
-8.82551e-06
-1.52261e-05
1.62605e-05
7.88956e-06
-8.92404e-06
-1.728e-05
1.82803e-05
7.73394e-06
-8.73426e-06
-1.92577e-05
2.02083e-05
7.34604e-06
-8.29664e-06
-2.11279e-05
2.20115e-05
6.75733e-06
-7.64096e-06
-2.28538e-05
2.36482e-05
5.96086e-06
-6.75523e-06
-2.43874e-05
2.50637e-05
4.91099e-06
-5.58724e-06
-2.56682e-05
2.61918e-05
3.54534e-06
-4.06894e-06
-2.66246e-05
2.69565e-05
1.77785e-06
-2.10976e-06
-2.71776e-05
2.72787e-05
-5.14134e-07
4.12972e-07
-2.72531e-05
2.70972e-05
-3.52006e-06
3.67589e-06
-2.68136e-05
2.64121e-05
-7.51597e-06
7.91749e-06
-2.59118e-05
2.53429e-05
-1.27965e-05
1.33654e-05
-2.47371e-05
2.41014e-05
-1.93749e-05
2.00106e-05
-2.35808e-05
2.386e-05
-2.72938e-05
2.70146e-05
-2.52925e-05
2.56642e-05
-3.20799e-05
3.17082e-05
-2.20139e-05
1.27488e-05
-5.14108e-06
1.44068e-05
-3.56401e-06
3.64239e-06
-7.83845e-08
-8.4918e-07
2.43833e-06
1.59814e-05
-1.75705e-05
-4.07442e-06
5.50657e-06
1.66319e-05
-1.8064e-05
-6.72274e-06
7.80642e-06
1.21596e-05
-1.32433e-05
-8.84185e-06
9.87968e-06
9.89789e-06
-1.09357e-05
-1.0938e-05
1.20149e-05
9.62914e-06
-1.0706e-05
-1.31003e-05
1.41836e-05
9.89087e-06
-1.09742e-05
-1.52567e-05
1.63145e-05
9.97035e-06
-1.10281e-05
-1.73538e-05
1.83729e-05
9.74375e-06
-1.07628e-05
-1.93696e-05
2.03413e-05
9.2573e-06
-1.0229e-05
-2.12845e-05
2.21946e-05
8.53719e-06
-9.44731e-06
-2.30666e-05
2.38943e-05
7.56549e-06
-8.39315e-06
-2.46707e-05
2.53884e-05
6.28335e-06
-7.00104e-06
-2.60391e-05
2.66144e-05
4.61747e-06
-5.1928e-06
-2.71053e-05
2.75029e-05
2.47361e-06
-2.87117e-06
-2.77987e-05
2.79852e-05
-2.69647e-07
8.3081e-08
-2.80574e-05
2.80132e-05
-3.77548e-06
3.81971e-06
-2.78547e-05
2.75894e-05
-8.24883e-06
8.51417e-06
-2.72301e-05
2.67936e-05
-1.38653e-05
1.43018e-05
-2.63004e-05
2.5774e-05
-2.05728e-05
2.10992e-05
-2.51773e-05
2.44788e-05
-2.73661e-05
2.80645e-05
-2.39407e-05
2.3001e-05
-3.17724e-05
3.27121e-05
-1.97055e-05
1.19604e-05
-2.296e-05
3.07051e-05
-3.65799e-06
3.61177e-06
4.6222e-08
-1.01203e-06
2.57073e-06
1.9146e-05
-2.07047e-05
-4.11216e-06
5.43273e-06
1.94405e-05
-2.07611e-05
-6.56527e-06
7.61332e-06
1.43072e-05
-1.53552e-05
-8.65716e-06
9.73148e-06
1.19909e-05
-1.30652e-05
-1.08375e-05
1.19614e-05
1.18069e-05
-1.29307e-05
-1.3087e-05
1.42025e-05
1.20743e-05
-1.31898e-05
-1.53012e-05
1.63807e-05
1.20969e-05
-1.31763e-05
-1.74404e-05
1.84803e-05
1.1792e-05
-1.2832e-05
-1.94997e-05
2.04967e-05
1.12128e-05
-1.22098e-05
-2.14683e-05
2.24102e-05
1.03726e-05
-1.13146e-05
-2.33177e-05
2.41847e-05
9.23974e-06
-1.01068e-05
-2.50048e-05
2.57708e-05
7.74202e-06
-8.50801e-06
-2.64749e-05
2.71093e-05
5.79675e-06
-6.43113e-06
-2.76655e-05
2.81353e-05
3.30407e-06
-3.77385e-06
-2.8511e-05
2.87862e-05
1.47496e-07
-4.2269e-07
-2.89564e-05
2.90201e-05
-3.80946e-06
3.74576e-06
-2.89786e-05
2.88367e-05
-8.71654e-06
8.85848e-06
-2.86016e-05
2.82813e-05
-1.46789e-05
1.49992e-05
-2.78791e-05
2.73869e-05
-2.16102e-05
2.21023e-05
-2.67758e-05
2.58988e-05
-2.88993e-05
2.97763e-05
-2.44984e-05
2.22179e-05
-3.44748e-05
3.67553e-05
-1.83339e-05
1.14772e-05
-3.78896e-05
4.47463e-05
-3.50102e-06
3.32584e-06
1.75176e-07
-1.18962e-06
2.70476e-06
2.22434e-05
-2.37585e-05
-4.13905e-06
5.34977e-06
2.2026e-05
-2.32367e-05
-6.41261e-06
7.44209e-06
1.63917e-05
-1.74212e-05
-8.50681e-06
9.62234e-06
1.41599e-05
-1.52754e-05
-1.07738e-05
1.19381e-05
1.40758e-05
-1.52401e-05
-1.30961e-05
1.42372e-05
1.43189e-05
-1.54599e-05
-1.53574e-05
1.6457e-05
1.4266e-05
-1.53656e-05
-1.75377e-05
1.86008e-05
1.38832e-05
-1.49463e-05
-1.96464e-05
2.06729e-05
1.3221e-05
-1.42475e-05
-2.16775e-05
2.26561e-05
1.22742e-05
-1.32528e-05
-2.36042e-05
2.45162e-05
1.09957e-05
-1.19077e-05
-2.53859e-05
2.62066e-05
9.30059e-06
-1.01212e-05
-2.69708e-05
2.76712e-05
7.09766e-06
-7.79802e-06
-2.82995e-05
2.8848e-05
4.28208e-06
-4.83053e-06
-2.9309e-05
2.96762e-05
7.43175e-07
-1.11036e-06
-2.99448e-05
3.01132e-05
-3.62957e-06
3.46115e-06
-3.01816e-05
3.01535e-05
-8.94237e-06
8.97045e-06
-3.00337e-05
2.98252e-05
-1.52636e-05
1.54721e-05
-2.95247e-05
2.91124e-05
-2.25621e-05
2.29744e-05
-2.85394e-05
2.77046e-05
-3.06525e-05
3.14874e-05
-2.63527e-05
2.40331e-05
-3.92069e-05
4.15265e-05
-2.00849e-05
1.40123e-05
-5.14312e-05
5.75038e-05
2.57227e-41
-3.9363e-40
2.25733e-41
-1.99252e-40
3.67455e-37
-3.73561e-37
-2.33621e-36
1.71575e-37
-4.50641e-37
-2.86683e-39
1.65238e-40
-5.5138e-40
-2.27499e-42
2.61946e-43
-3.70788e-43
-2.13668e-45
3.45364e-46
-2.83541e-46
-2.14756e-48
4.50797e-49
-2.3179e-49
-1.97314e-51
5.32277e-52
-1.71633e-52
-1.44655e-54
4.77043e-55
-9.43005e-56
-7.55618e-58
2.85445e-58
-3.04453e-59
-2.33986e-61
8.94292e-62
-6.32219e-64
-5.05718e-65
2.19394e-65
4.96337e-67
-1.00138e-68
4.76221e-69
2.02894e-70
-1.56662e-72
7.32037e-73
5.10492e-74
-1.95132e-76
9.17083e-77
9.17622e-78
-1.63013e-80
8.39999e-81
1.0824e-81
-7.10241e-85
3.46306e-85
7.35503e-86
-1.47973e-89
6.53203e-90
2.75813e-90
-8.80942e-95
3.76883e-95
2.52228e-95
1.87071e-37
-2.40427e-36
4.25506e-37
-8.55298e-35
1.38372e-31
6.89369e-32
-2.51008e-31
-5.57313e-31
4.84312e-32
2.40066e-32
-2.32422e-31
-5.14968e-34
4.74745e-35
1.15314e-35
-2.41325e-34
-4.65934e-37
4.59467e-38
4.20911e-39
-1.52583e-37
-5.01759e-40
6.63283e-41
4.34423e-42
-1.22925e-40
-5.41948e-43
9.62981e-44
4.64969e-45
-1.05619e-43
-5.40713e-46
1.25175e-46
3.86527e-48
-8.19552e-47
-4.69283e-49
1.42921e-49
2.26775e-51
-5.06685e-50
-3.22963e-52
1.21604e-52
5.92635e-55
-2.00408e-53
-1.69066e-55
6.19411e-56
7.61862e-60
-2.44026e-57
-8.0361e-59
2.72543e-59
-5.25721e-63
2.95594e-60
-3.71527e-62
1.35639e-62
-4.41085e-66
3.36919e-63
-1.37547e-65
5.47629e-66
-1.97285e-69
2.1137e-66
-3.80445e-69
1.6846e-69
-6.04707e-73
8.78702e-70
-7.0803e-73
3.46325e-73
-1.65574e-76
2.50683e-73
-8.72874e-77
3.47436e-77
-3.2023e-80
4.60463e-77
-4.42906e-81
1.45295e-81
-2.05266e-84
2.96923e-81
-5.66463e-86
9.52154e-87
-3.25906e-89
4.69954e-86
2.1122e-32
-4.47191e-31
-4.33108e-31
-2.76993e-30
2.92284e-27
1.08137e-27
-1.15753e-26
-9.52169e-27
5.65294e-28
5.12854e-29
-6.9617e-27
-8.81192e-30
2.65408e-31
7.68435e-32
-6.08055e-30
-7.21165e-33
4.55449e-34
8.15133e-35
-4.147e-33
-7.29613e-36
6.31034e-37
7.08491e-38
-3.15824e-36
-7.45618e-39
1.00098e-39
9.02002e-41
-2.39474e-39
-6.92388e-42
1.30309e-42
7.54745e-44
-1.67352e-42
-5.68713e-45
1.34552e-45
3.98987e-47
-9.7186e-46
-4.04619e-48
1.32335e-48
1.44261e-50
-4.0229e-49
-2.22106e-51
8.30353e-52
7.52998e-55
-5.92309e-53
-1.05061e-54
3.26603e-55
-4.04795e-58
6.22112e-56
-5.24254e-58
1.63593e-58
-4.2622e-61
7.83097e-59
-2.10717e-61
7.78614e-62
-2.31578e-64
5.31686e-62
-5.93499e-65
2.65699e-65
-8.52527e-68
2.29298e-65
-1.36584e-68
5.55135e-69
-3.27793e-71
7.52281e-69
-1.79122e-72
5.81045e-73
-5.65094e-75
1.16077e-72
-9.36789e-77
2.27575e-77
-3.19475e-79
7.01576e-77
-1.05918e-81
1.23403e-82
-5.16159e-84
9.40607e-82
3.42441e-29
2.72702e-26
-2.41901e-25
2.03474e-24
1.18775e-23
1.48455e-24
-1.48291e-22
-4.5865e-23
2.09733e-24
6.44962e-25
-4.49528e-23
-3.69743e-26
1.11807e-27
5.33202e-28
-3.56403e-26
-3.65355e-29
1.09666e-30
4.02991e-31
-2.56475e-29
-3.13829e-32
1.23641e-33
3.1764e-34
-1.78449e-32
-2.55802e-35
2.48768e-36
3.23871e-37
-1.16307e-35
-2.17466e-38
4.37356e-39
4.16523e-40
-7.32138e-39
-1.58932e-41
4.12642e-42
2.15183e-43
-3.7723e-42
-1.06186e-44
3.1935e-45
7.02853e-47
-1.45323e-45
-6.21481e-48
2.47267e-48
6.39186e-51
-2.3524e-49
-2.81628e-51
1.06596e-51
-3.12626e-54
2.24424e-52
-1.32768e-54
4.34936e-55
-3.42449e-57
2.7939e-55
-5.59939e-58
2.07148e-58
-2.09974e-60
1.94428e-58
-1.84986e-61
7.30243e-62
-1.02101e-63
1.01017e-61
-4.71231e-65
1.55289e-65
-3.79234e-67
3.03467e-65
-6.54992e-69
1.67641e-69
-6.50109e-71
4.80284e-69
-3.77932e-73
7.2425e-74
-3.91178e-75
3.07108e-73
-4.54973e-78
3.88699e-79
-5.86993e-80
4.22649e-78
-8.9048e-24
1.17517e-21
-7.31116e-21
3.69978e-20
2.10971e-20
1.42237e-20
-6.17798e-19
-9.37685e-20
3.24591e-21
2.45647e-21
-1.16765e-19
-6.57004e-23
1.8326e-24
1.62481e-24
-6.19944e-23
-5.00081e-26
1.3521e-27
1.05928e-27
-3.96107e-26
-3.84386e-29
1.11008e-30
7.57492e-31
-2.86066e-29
-3.13142e-32
1.50706e-33
5.44069e-34
-2.04474e-32
-2.45844e-35
4.27519e-36
6.26031e-37
-1.15404e-35
-1.73816e-38
5.88945e-39
4.39272e-40
-5.04647e-39
-1.03706e-41
3.39574e-42
1.09724e-43
-1.63457e-42
-6.54283e-45
2.74357e-45
1.1638e-47
-2.80459e-46
-2.89673e-48
1.46725e-48
-6.17598e-51
2.79628e-49
-1.13452e-51
5.03611e-52
-6.0408e-54
3.15439e-52
-4.84234e-55
2.01707e-55
-3.92019e-57
2.82058e-55
-2.00226e-58
6.3691e-59
-2.1352e-60
1.28931e-58
-4.62179e-62
1.3472e-62
-6.95915e-64
3.23978e-62
-6.02889e-66
1.3335e-66
-1.22243e-67
4.7579e-66
-3.39177e-70
5.5859e-71
-7.78473e-72
2.90806e-70
-4.21536e-75
2.76144e-76
-1.15434e-76
4.05241e-75
-9.81365e-20
5.11476e-18
-1.08738e-18
5.61948e-17
1.86171e-17
2.55656e-18
-1.27064e-16
-4.42214e-17
2.58677e-18
2.76622e-18
1.97397e-17
-1.47125e-19
2.7291e-21
3.11059e-21
-8.2136e-19
-4.034e-23
9.34994e-25
1.69092e-24
-7.72942e-23
-2.29763e-26
5.71999e-28
1.08164e-27
-3.16452e-26
-1.45848e-29
3.67122e-31
6.83543e-31
-9.65948e-30
-9.82522e-33
9.58123e-34
3.08468e-34
-3.84673e-33
-1.12979e-35
2.25903e-36
2.73745e-37
-3.95727e-36
-1.69331e-38
5.01353e-39
2.88233e-40
-3.87266e-39
-1.42368e-41
7.80511e-42
4.32854e-44
-1.02844e-42
-4.625e-45
2.54584e-45
-8.20762e-48
6.20027e-46
-2.16962e-48
8.69659e-49
-9.3315e-51
8.0657e-49
-1.21592e-51
4.98535e-52
-6.90824e-54
6.31723e-52
-4.1963e-55
1.47934e-55
-2.58792e-57
2.59351e-55
-6.75656e-59
1.88925e-59
-5.63688e-61
4.79467e-59
-6.49632e-63
1.27405e-63
-9.77588e-65
5.24941e-63
-3.37645e-67
4.77444e-68
-5.18277e-69
2.94685e-67
-4.52209e-72
2.46027e-73
-6.80006e-74
4.35986e-72
-4.19442e-16
3.5337e-16
3.17064e-17
3.66794e-14
4.5761e-14
4.10828e-15
-1.36331e-13
-2.58942e-14
7.97857e-15
-2.41855e-16
-1.77351e-13
1.18135e-18
1.46106e-19
4.67711e-18
-9.97378e-18
-2.84311e-21
5.20971e-23
9.2095e-22
-1.97284e-21
-1.06418e-24
2.49683e-26
2.36025e-25
-5.72067e-25
-8.86803e-28
7.38078e-29
6.80454e-29
-5.87112e-28
-5.09789e-30
5.43369e-31
1.27422e-31
-3.01857e-30
-3.12964e-32
2.09908e-33
3.19243e-34
-1.22523e-32
-8.78772e-35
6.77684e-36
4.97335e-37
-2.12308e-35
-1.0523e-37
3.32128e-38
3.12367e-40
-9.12581e-39
-5.06022e-41
3.00829e-41
-5.59534e-44
5.76762e-42
-1.84321e-44
7.65038e-45
-6.82972e-47
8.31972e-45
-8.56229e-48
2.6382e-48
-4.89167e-50
5.51069e-48
-4.32132e-51
1.44113e-51
-2.0302e-53
2.77708e-51
-9.02384e-55
2.61618e-55
-3.10584e-57
6.39728e-55
-6.55667e-59
1.27511e-59
-4.39655e-61
5.35106e-59
-2.68832e-63
3.27978e-64
-2.37309e-65
2.41827e-63
-3.93041e-68
1.8767e-69
-4.0431e-70
3.81802e-68
-9.86091e-09
6.31107e-12
3.5785e-09
-1.67105e-10
5.61179e-12
5.3237e-11
-5.4066e-11
-3.82819e-14
1.51264e-15
1.13369e-13
-8.10691e-14
-6.347e-18
2.71659e-19
1.37151e-17
-9.52427e-18
-1.11166e-20
6.5382e-22
3.32337e-21
-1.06243e-20
-1.15723e-22
3.14688e-23
3.69864e-23
-2.04014e-22
-2.63181e-24
8.17576e-25
1.23068e-24
-3.47033e-24
-2.62952e-26
6.98934e-27
7.17213e-27
-2.18048e-26
-1.09704e-28
2.18038e-29
9.49085e-30
-6.14374e-29
-2.92868e-31
2.97622e-32
2.64891e-33
-9.76115e-32
-4.38499e-34
4.07907e-35
9.4041e-37
-5.21545e-35
-3.21351e-37
1.30566e-37
-4.71502e-40
3.6343e-38
-1.85875e-40
9.81646e-41
-7.30136e-43
6.96544e-41
-6.75852e-44
2.02161e-44
-4.29285e-46
4.4019e-44
-2.83337e-47
6.61757e-48
-2.04103e-49
2.09929e-47
-8.54757e-51
2.21895e-51
-5.99572e-53
6.31379e-51
-9.79538e-55
1.87836e-55
-6.45479e-57
8.02357e-55
-3.44692e-59
3.5334e-60
-2.80751e-61
3.15722e-59
-5.45909e-64
2.12799e-65
-5.73697e-66
5.37047e-64
-2.74645e-06
1.88454e-06
8.61912e-07
-3.00737e-06
6.1048e-06
2.52465e-05
-2.8344e-05
-8.87537e-06
1.11876e-05
2.43971e-05
-2.67094e-05
-1.33132e-05
1.55008e-05
1.84479e-05
-2.06355e-05
-1.78446e-05
2.03229e-05
1.64114e-05
-1.88896e-05
-2.28696e-05
2.5423e-05
1.64208e-05
-1.89742e-05
-2.7945e-05
3.04211e-05
1.66112e-05
-1.90872e-05
-3.28517e-05
3.52435e-05
1.6475e-05
-1.88668e-05
-3.76033e-05
3.99354e-05
1.60221e-05
-1.83543e-05
-4.224e-05
4.4514e-05
1.52901e-05
-1.75641e-05
-4.67519e-05
4.89456e-05
1.42512e-05
-1.6445e-05
-5.10869e-05
5.31651e-05
1.28437e-05
-1.49219e-05
-5.51684e-05
5.70839e-05
1.09712e-05
-1.28866e-05
-5.88967e-05
6.05918e-05
8.53381e-06
-1.02289e-05
-6.21517e-05
6.35586e-05
5.42116e-06
-6.82812e-06
-6.47953e-05
6.5846e-05
1.52633e-06
-2.57709e-06
-6.66983e-05
6.73453e-05
-3.23992e-06
2.59288e-06
-6.77865e-05
6.8025e-05
-8.9445e-06
8.70602e-06
-6.80677e-05
6.79219e-05
-1.56268e-05
1.57725e-05
-6.75895e-05
6.70578e-05
-2.33282e-05
2.38599e-05
-6.62796e-05
6.51579e-05
-3.22367e-05
3.33584e-05
-6.35253e-05
6.11391e-05
-4.35122e-05
4.58984e-05
-5.78289e-05
5.57979e-05
-6.36358e-05
6.56668e-05
-7.29321e-07
-7.19321e-07
1.44864e-06
-3.82665e-06
6.66202e-06
3.13127e-05
-3.4148e-05
-8.98957e-06
1.09802e-05
2.88465e-05
-3.08371e-05
-1.30063e-05
1.52608e-05
2.28466e-05
-2.51011e-05
-1.77372e-05
2.0341e-05
2.14395e-05
-2.40433e-05
-2.29786e-05
2.55932e-05
2.15683e-05
-2.41829e-05
-2.81649e-05
3.06967e-05
2.15936e-05
-2.41254e-05
-3.32006e-05
3.56885e-05
2.13028e-05
-2.37907e-05
-3.81687e-05
4.06457e-05
2.07505e-05
-2.32275e-05
-4.31201e-05
4.55901e-05
1.99225e-05
-2.23925e-05
-4.80525e-05
5.05024e-05
1.87472e-05
-2.11971e-05
-5.29342e-05
5.53382e-05
1.71389e-05
-1.9543e-05
-5.7702e-05
6.00102e-05
1.49753e-05
-1.72835e-05
-6.22442e-05
6.43833e-05
1.21293e-05
-1.42684e-05
-6.64017e-05
6.82714e-05
8.46014e-06
-1.03299e-05
-6.99652e-05
7.14617e-05
3.85556e-06
-5.35214e-06
-7.27515e-05
7.38176e-05
-1.72549e-06
6.59354e-07
-7.46742e-05
7.53226e-05
-8.2441e-06
7.59579e-06
-7.57812e-05
7.6078e-05
-1.5661e-05
1.53641e-05
-7.62603e-05
7.63917e-05
-2.40314e-05
2.39001e-05
-7.65647e-05
7.6911e-05
-3.36785e-05
3.33321e-05
-7.76812e-05
7.92153e-05
-4.56459e-05
4.41118e-05
-8.21648e-05
8.67118e-05
-6.10612e-05
5.65142e-05
2.47082e-06
-4.50874e-06
2.03792e-06
-4.68328e-06
7.26843e-06
3.68555e-05
-3.94407e-05
-9.21341e-06
1.10052e-05
3.27109e-05
-3.45026e-05
-1.3051e-05
1.54258e-05
2.7409e-05
-2.97838e-05
-1.8018e-05
2.0695e-05
2.66857e-05
-2.93626e-05
-2.33743e-05
2.60277e-05
2.68133e-05
-2.94668e-05
-2.86593e-05
3.12838e-05
2.66969e-05
-2.93214e-05
-3.39147e-05
3.65598e-05
2.63565e-05
-2.90016e-05
-3.92203e-05
4.18922e-05
2.58188e-05
-2.84907e-05
-4.45648e-05
4.72224e-05
2.50081e-05
-2.76657e-05
-4.98459e-05
5.24143e-05
2.38127e-05
-2.63812e-05
-5.4907e-05
5.72996e-05
2.2111e-05
-2.45036e-05
-5.95727e-05
6.17224e-05
1.9726e-05
-2.18756e-05
-6.37632e-05
6.57264e-05
1.65158e-05
-1.8479e-05
-6.7639e-05
6.95365e-05
1.23241e-05
-1.42216e-05
-7.14512e-05
7.34056e-05
7.04661e-06
-9.00097e-06
-7.54007e-05
7.73733e-05
7.3657e-07
-2.70913e-06
-7.92751e-05
8.09983e-05
-6.61683e-06
4.89366e-06
-8.24963e-05
8.37403e-05
-1.47849e-05
1.35409e-05
-8.47448e-05
8.5576e-05
-2.35454e-05
2.27142e-05
-8.63624e-05
8.72655e-05
-3.26781e-05
3.17751e-05
-8.84795e-05
9.02788e-05
-4.22949e-05
4.04956e-05
-9.30148e-05
9.68524e-05
-5.22716e-05
4.8434e-05
6.77305e-06
-9.27528e-06
2.50222e-06
-5.1733e-06
7.39269e-06
4.18889e-05
-4.41083e-05
-9.12773e-06
1.09357e-05
3.62708e-05
-3.80788e-05
-1.31127e-05
1.55846e-05
3.22346e-05
-3.47065e-05
-1.81659e-05
2.07301e-05
3.20481e-05
-3.46123e-05
-2.323e-05
2.56622e-05
3.21008e-05
-3.45329e-05
-2.80302e-05
3.03302e-05
3.19157e-05
-3.42158e-05
-3.25489e-05
3.46694e-05
3.15634e-05
-3.36838e-05
-3.66777e-05
3.85645e-05
3.0968e-05
-3.28547e-05
-4.0314e-05
4.19275e-05
2.99538e-05
-3.15672e-05
-4.34515e-05
4.49763e-05
2.83921e-05
-2.99165e-05
-4.66365e-05
4.8564e-05
2.6251e-05
-2.81778e-05
-5.0922e-05
5.38642e-05
2.35277e-05
-2.64669e-05
-5.7538e-05
6.21053e-05
2.03845e-05
-2.49473e-05
-6.72014e-05
7.22539e-05
1.65969e-05
-2.09703e-05
-7.64334e-05
7.9652e-05
1.17668e-05
-1.29413e-05
-8.20605e-05
8.44194e-05
5.51736e-06
-5.39251e-06
-8.64883e-05
8.93002e-05
-2.46277e-06
1.00044e-06
-9.18592e-05
9.26145e-05
-1.17773e-05
1.1022e-05
-9.17134e-05
9.1203e-05
-2.13221e-05
2.18325e-05
-9.16465e-05
9.27226e-05
-3.03525e-05
2.92763e-05
-9.42871e-05
9.63694e-05
-3.86433e-05
3.6561e-05
-9.9006e-05
0.000102183
-4.51892e-05
4.20123e-05
1.24208e-05
-1.71897e-05
4.76892e-06
-5.48344e-06
6.41884e-06
4.58553e-05
-4.67882e-05
-7.49055e-06
9.09175e-06
3.9896e-05
-4.14957e-05
-1.10461e-05
1.30838e-05
3.70225e-05
-3.90586e-05
-1.50556e-05
1.69423e-05
3.68315e-05
-3.87162e-05
-1.87783e-05
2.06168e-05
3.65453e-05
-3.83815e-05
-2.24863e-05
2.44397e-05
3.60344e-05
-3.79796e-05
-2.65528e-05
2.89459e-05
3.53338e-05
-3.77083e-05
-3.18204e-05
3.55116e-05
3.45221e-05
-3.81842e-05
-3.99275e-05
4.42118e-05
3.36267e-05
-3.32612e-05
-4.76e-05
4.90223e-05
3.31682e-05
-2.13154e-05
-4.67838e-05
3.87028e-05
3.32907e-05
-4.1475e-06
-2.91449e-05
1.97806e-05
2.44625e-05
-2.12049e-07
-1.10566e-05
7.03228e-06
1.24463e-05
-9.53195e-09
-1.95076e-06
4.95523e-07
1.45567e-06
-3.8086e-10
-1.20477e-07
2.91463e-08
9.13471e-08
-1.38587e-11
-7.05508e-09
1.6921e-09
5.36341e-09
-3.48547e-13
-3.43131e-10
2.48899e-07
-2.54794e-07
6.35373e-09
-6.36015e-07
9.99842e-07
-4.14751e-07
5.26215e-08
-2.38503e-06
1.02193e-05
-7.25181e-06
3.23717e-07
-2.99595e-05
5.71271e-05
-2.86783e-05
8.17364e-07
-8.39369e-05
9.68175e-05
-3.67217e-05
1.77075e-05
-0.000104213
0.000106719
-3.96129e-05
3.71071e-05
2.50039e-05
-2.50911e-05
9.44686e-06
-1.27312e-05
1.09046e-05
4.65801e-05
-2.36015e-05
-9.90153e-06
1.09042e-05
4.26198e-05
-2.69565e-05
-1.30254e-05
1.51789e-05
4.11926e-05
-2.22776e-05
-1.70654e-05
1.85617e-05
4.09609e-05
-1.6376e-05
-1.94055e-05
1.9098e-05
4.0886e-05
-6.36512e-06
-1.71252e-05
1.46471e-05
3.47592e-05
-5.27769e-08
-1.16682e-05
8.28176e-06
2.4719e-05
-5.78327e-10
-4.51525e-06
3.44253e-06
1.32993e-05
-8.23315e-12
-5.80412e-07
9.68375e-08
4.83739e-07
-1.49756e-10
-1.67358e-08
3.03562e-09
1.37992e-08
-2.07891e-10
-5.70768e-10
1.33257e-10
5.45314e-10
-9.77973e-11
-3.94138e-11
1.33093e-11
5.21467e-11
-2.82735e-11
-4.39337e-12
1.17479e-12
4.92512e-12
-1.8763e-12
-3.50283e-13
1.77626e-13
2.72416e-13
-1.06257e-13
-1.39716e-13
1.31307e-13
4.13871e-14
-3.32806e-14
-1.27689e-13
1.17753e-13
1.11218e-14
-1.35536e-15
-1.71762e-13
8.849e-11
-3.95378e-10
3.07077e-10
-6.39976e-10
3.15976e-09
-8.21811e-09
5.75482e-09
-1.10174e-08
3.249e-08
-3.91012e-08
1.80258e-08
-1.0356e-07
2.20003e-07
-1.02853e-07
-6.47583e-09
-4.80879e-07
8.14703e-07
-3.19428e-07
-5.18011e-08
-1.23255e-06
2.80522e-06
-1.91042e-06
1.47904e-07
-2.23884e-18
7.49143e-23
1.01461e-18
-7.29846e-08
2.2148e-09
7.07698e-08
8.24377e-19
-7.95676e-11
3.2596e-12
7.6308e-11
6.64981e-20
-1.48808e-13
7.58134e-15
1.41225e-13
1.1195e-18
-4.25945e-16
2.51803e-17
3.90048e-16
1.0717e-17
2.19971e-19
-1.14722e-17
-1.25736e-17
5.86113e-17
3.0277e-17
-4.5458e-17
-4.3898e-17
1.08016e-16
6.15218e-17
-7.99616e-17
-7.22774e-17
1.45886e-16
-6.87511e-15
5.26276e-12
2.08436e-12
-7.30385e-12
-5.30084e-11
2.67015e-10
1.54394e-10
-3.66549e-10
-6.85408e-10
7.94014e-10
3.25008e-10
-5.42598e-10
-7.36157e-10
1.12247e-09
1.37216e-10
-2.23422e-09
-2.21945e-10
4.96891e-12
9.5452e-11
-8.95989e-11
-2.29995e-12
6.33931e-13
2.37668e-12
-1.9966e-12
-2.7775e-13
1.7848e-13
6.01821e-14
-2.90025e-14
-1.42892e-13
1.25959e-13
1.85967e-14
-3.02708e-15
-1.06036e-13
8.5493e-14
-2.07631e-14
4.10951e-14
-4.37091e-08
1.14239e-07
-2.16212e-08
4.63915e-08
-1.35525e-07
1.59272e-07
-1.24147e-08
1.16331e-09
-1.8112e-07
1.2351e-07
-1.39118e-08
5.53773e-09
-7.88127e-08
7.91152e-08
-4.85595e-08
-7.62008e-11
-4.81826e-08
1.11346e-08
2.22141e-09
5.50331e-10
-1.04417e-08
1.59896e-08
-5.90051e-09
2.38352e-10
-5.84149e-23
2.79878e-23
2.9928e-23
-3.88095e-22
-3.23953e-22
-5.00646e-21
6.86599e-21
6.4865e-21
-4.91229e-20
-1.84081e-19
2.7386e-19
2.66227e-19
-1.13557e-18
-3.08704e-18
4.42894e-18
3.89789e-18
-1.10738e-17
-2.38373e-17
3.20473e-17
2.64006e-17
-4.96412e-17
-8.88258e-17
9.9892e-17
6.90319e-17
-7.11612e-17
-1.08115e-16
4.17157e-17
7.338e-17
-8.60825e-17
-1.16168e-16
3.78127e-17
-2.61445e-12
4.70498e-10
5.77137e-11
-5.23539e-10
-4.67796e-09
3.40665e-08
1.75321e-09
-5.59082e-08
-5.3718e-08
2.40501e-08
1.31848e-08
-5.88111e-08
-1.38922e-09
2.45772e-10
1.96849e-09
-8.49411e-10
-4.86875e-11
2.23002e-11
5.20249e-11
-1.17667e-11
-2.47952e-11
1.42945e-11
1.30838e-12
-4.04696e-12
-1.54641e-11
1.29566e-11
-3.66841e-13
2.29593e-12
-6.74121e-12
1.64697e-12
-5.10483e-14
4.66788e-12
-5.56748e-13
5.4308e-13
-5.2327e-14
6.50651e-14
-5.5045e-08
9.74814e-08
-2.61633e-08
2.36507e-09
-5.18917e-08
8.01249e-10
1.68376e-09
-2.30206e-10
-1.66593e-10
8.29717e-11
2.82684e-11
-1.58792e-12
-5.08151e-11
4.84978e-11
-2.58876e-12
1.06142e-12
-5.33552e-11
2.44206e-11
2.82189e-11
-3.84036e-13
-1.78741e-11
2.1958e-11
-4.35113e-12
3.09311e-15
-1.30493e-23
1.08952e-23
-3.78173e-25
1.93348e-23
-6.3468e-22
-7.52207e-21
7.6606e-21
8.27451e-21
-6.6462e-20
-3.37147e-19
3.7305e-19
3.78347e-19
-1.61944e-18
-5.40182e-18
5.93113e-18
5.36972e-18
-1.41643e-17
-3.68727e-17
3.81984e-17
2.9636e-17
-4.2172e-17
-9.35577e-17
7.17618e-17
2.2172e-17
5.08182e-17
7.93611e-17
-2.78193e-16
-1.0294e-16
1.28813e-16
1.04561e-17
-3.63621e-17
-3.0595e-10
1.70957e-08
5.70463e-09
-4.29388e-08
-4.39133e-08
4.00492e-08
9.09971e-08
-8.44509e-08
-1.34448e-08
1.08018e-09
3.37581e-08
-6.62673e-10
-7.13464e-11
4.84535e-12
9.40665e-11
-1.94559e-11
-1.9948e-12
4.66474e-12
1.67249e-12
-1.04688e-12
-7.02317e-10
3.15566e-09
1.53591e-10
-3.24905e-09
-1.82238e-08
3.79809e-08
4.02016e-13
-1.61841e-08
-3.17064e-08
1.50298e-08
-4.54901e-10
1.26894e-09
-1.79817e-09
5.2474e-10
-5.79019e-12
1.28094e-09
-2.94438e-10
2.53905e-10
-1.9136e-10
5.66977e-11
-8.71922e-11
3.13301e-11
5.21075e-11
-3.95607e-12
-1.42001e-11
1.60465e-11
-2.07035e-13
8.89632e-12
-5.89776e-12
2.20578e-13
-6.27849e-14
2.6488e-13
-1.1024e-13
7.47451e-14
2.77681e-15
7.90119e-15
-5.64229e-14
4.92626e-14
-3.3916e-15
2.725e-15
-1.14038e-23
1.16982e-23
-9.4596e-25
3.25092e-23
-6.71556e-22
-7.34724e-21
6.68949e-21
8.13551e-21
-6.4522e-20
-3.78051e-19
3.54649e-19
3.59306e-19
-1.48276e-18
-5.9459e-18
5.48678e-18
4.66651e-18
-1.13636e-17
-3.59781e-17
3.09698e-17
2.06302e-17
-1.45692e-17
-3.97035e-17
4.68229e-18
-1.89923e-16
4.51841e-16
8.86338e-16
-1.48288e-15
-3.50521e-16
8.42522e-16
8.85429e-17
-5.97346e-16
-6.13899e-09
2.09305e-08
7.81344e-08
-9.02763e-08
-1.97918e-08
6.18152e-10
4.21256e-08
-1.66257e-08
-4.86886e-11
9.78096e-12
1.31164e-10
-1.23235e-10
-1.98463e-11
-1.4881e-12
1.68355e-11
-5.81765e-11
-9.72307e-13
1.33267e-12
1.06395e-12
-1.01369e-12
-2.02595e-08
2.86622e-08
3.65253e-08
-4.43213e-08
-3.35802e-08
3.83156e-08
2.11191e-08
-2.5404e-08
-4.25371e-08
4.53939e-08
-1.44641e-10
-2.20892e-09
-4.77341e-08
1.5131e-09
-7.04954e-09
6.50571e-09
-8.99963e-10
3.72277e-10
-2.36063e-10
9.97803e-10
-2.03016e-10
6.91174e-10
-1.02467e-10
1.88143e-10
-8.50215e-10
1.02369e-10
-4.02581e-11
3.22121e-11
-1.06534e-12
1.63346e-13
-4.42329e-13
2.73175e-13
-7.30938e-14
2.85923e-14
-8.46326e-15
4.6646e-15
-2.79505e-14
2.5039e-14
-1.87328e-15
4.58082e-16
-1.11295e-23
9.71329e-24
-9.54274e-25
2.87773e-23
-5.4317e-22
-5.78712e-21
4.74081e-21
6.34587e-21
-4.82848e-20
-3.09986e-19
2.52869e-19
2.58017e-19
-1.01574e-18
-4.68207e-18
3.69982e-18
3.00233e-18
-6.62196e-18
-2.44116e-17
1.76025e-17
9.78016e-18
2.55294e-17
2.66557e-17
-6.63695e-17
-4.52663e-16
6.64163e-16
1.88092e-15
-1.982e-15
-3.35919e-16
9.14151e-15
5.03239e-15
-2.05191e-14
-2.00905e-13
8.92043e-09
4.86661e-08
-5.4096e-13
-5.29731e-09
2.41115e-10
2.96249e-08
-5.09016e-08
1.33321e-10
-2.42744e-12
2.44806e-10
-1.83248e-10
-6.82508e-12
-2.03993e-13
1.07335e-10
-1.50102e-10
-2.82177e-14
-2.5631e-13
9.94232e-13
-8.86781e-13
5.05904e-10
-5.96683e-10
4.18032e-08
-1.607e-11
6.07831e-10
-1.89232e-10
2.68525e-08
-8.62086e-09
-2.39777e-10
1.12349e-09
3.65991e-09
-5.33502e-09
-1.94282e-09
5.49968e-09
-6.48639e-10
8.01075e-10
-7.0162e-09
8.2838e-09
-2.81984e-09
1.76215e-09
-4.77438e-10
5.94717e-12
-1.24931e-10
4.01034e-11
-9.56156e-13
1.64342e-13
-2.46478e-14
-1.5801e-14
-3.69425e-14
1.39405e-14
-9.20982e-16
-1.46713e-15
-1.40622e-14
1.00856e-14
7.02841e-17
-2.16985e-16
-5.09401e-15
2.57315e-15
1.23714e-17
-3.72641e-17
-7.75574e-24
5.66406e-24
-5.54752e-25
1.70796e-23
-3.27231e-22
-3.66022e-21
2.64884e-21
3.73221e-21
-2.73011e-20
-1.92313e-19
1.35991e-19
1.39709e-19
-5.21203e-19
-2.70497e-18
1.82521e-18
1.42765e-18
-2.77347e-18
-1.15735e-17
6.90264e-18
2.92648e-18
4.59074e-17
7.97908e-17
-7.53034e-17
-3.51438e-16
6.40451e-16
2.01442e-15
-2.00629e-15
-4.34507e-16
1.15139e-13
9.2818e-15
-9.60116e-16
-8.04517e-13
3.02154e-13
8.49872e-13
-1.11221e-12
-9.08796e-14
4.8895e-09
3.11578e-08
-1.94403e-08
2.19215e-10
2.81261e-11
2.63711e-10
-6.20835e-10
-1.25244e-12
1.25665e-12
8.39766e-11
-1.1006e-11
-8.93224e-14
3.57156e-14
9.60876e-13
-1.09988e-12
4.99079e-15
-4.29575e-12
4.34153e-12
-4.09652e-13
2.52335e-11
-1.89889e-11
2.8381e-09
-2.81648e-14