/*--------------------------------*- C++ -*----------------------------------*\
| =========                 |                                                 |
| \\      /  F ield         | OpenFOAM: The Open Source CFD Toolbox           |
|  \\    /   O peration     | Version:  v1912                                 |
|   \\  /    A nd           | Website:  www.openfoam.com                      |
|    \\/     M anipulation  |                                                 |
\*---------------------------------------------------------------------------*/
FoamFile
{
    version     2.0;
    format      ascii;
    class       volScalarField;
    location    "0.3";
    object      p;
}
// * * * * * * * * * * * * * * * * * * * * * * * * * * * * * * * * * * * * * //

dimensions      [1 -1 -2 0 0 0 0];


internalField   nonuniform List<scalar> 
9072
(
1256.81
1290.09
1289.28
1281.14
1270.98
1260.98
1251.14
1241.19
1231.22
1221.77
1213.68
1208.08
1206.3
1209.9
1220.74
1241.26
1273.65
1320.31
1374.6
1401.42
1407.17
1345.89
1359.73
1196.44
1230.31
1229.47
1221.41
1211.42
1201.52
1191.69
1181.69
1171.65
1162.11
1153.92
1148.2
1146.28
1149.69
1160.16
1179.57
1209.81
1251.44
1299.92
1337.31
1366.05
1253.63
1215.83
1134.9
1169.33
1168.41
1160.56
1150.94
1141.26
1131.44
1121.32
1111.11
1101.37
1092.96
1086.98
1084.73
1087.73
1097.61
1115.99
1144.11
1181.42
1222.41
1257.24
1285.49
1174.75
1126.8
1072.28
1107.22
1106.2
1098.67
1089.58
1080.2
1070.37
1060.07
1049.59
1039.55
1030.79
1024.39
1021.64
1023.99
1033.01
1050.07
1075.93
1109.48
1145.88
1176.23
1190.81
1134.37
1148.09
1008.71
1044.06
1042.94
1035.86
1027.41
1018.34
1008.47
997.911
987.082
976.622
967.378
960.405
956.964
958.474
966.382
981.894
1005.43
1035.65
1068.22
1095.91
1110.85
1108.23
1189.42
944.367
979.992
978.787
972.26
964.473
955.677
945.7
934.82
923.555
912.574
902.711
895.003
890.682
891.129
897.715
911.507
932.732
959.995
989.463
1015.4
1033.65
1055.06
1152.13
879.424
915.144
913.893
907.968
900.802
892.199
882.046
870.776
858.994
847.382
836.761
828.144
822.744
821.91
826.962
838.886
857.822
882.424
909.31
933.806
953.678
979.819
1052.62
813.952
849.673
848.39
843.071
836.418
827.895
817.488
805.763
793.38
781.02
769.486
759.773
753.075
750.725
754.021
763.931
780.598
802.769
827.4
850.272
868.685
886.687
909.698
34.7215
34.7556
34.7598
34.7608
34.7605
34.7598
34.7581
34.7542
34.7471
34.7361
34.7216
34.7041
34.6849
34.6652
34.6461
34.629
34.615
34.6048
34.5989
34.6613
34.6965
34.7009
34.7019
34.7015
34.7009
34.6994
34.6957
34.6886
34.6777
34.6631
34.6455
34.6261
34.6061
34.5869
34.5697
34.5555
34.5452
34.5393
34.5998
34.6369
34.6423
34.6428
34.6423
34.6421
34.641
34.6377
34.6308
34.6199
34.6051
34.5872
34.5673
34.5468
34.5271
34.5094
34.4948
34.4841
34.4781
34.5367
34.5766
34.5836
34.5836
34.5829
34.5831
34.5829
34.5802
34.5737
34.5629
34.5478
34.5292
34.5085
34.4871
34.4666
34.4481
34.4328
34.4217
34.4153
34.471
34.5151
34.5253
34.524
34.5232
34.5242
34.525
34.5233
34.5174
34.5066
34.491
34.4716
34.4498
34.4272
34.4054
34.3858
34.3696
34.3577
34.351
34.4022
34.4514
34.4671
34.4642
34.4629
34.465
34.4675
34.4671
34.4619
34.4511
34.4349
34.4144
34.3911
34.3669
34.3435
34.3224
34.305
34.2922
34.2848
34.3271
34.3796
34.4113
34.4036
34.4019
34.4057
34.4103
34.4117
34.4073
34.3965
34.3795
34.3576
34.3326
34.3064
34.2809
34.2579
34.2389
34.2249
34.2168
34.2376
34.329
34.3551
34.3415
34.3397
34.346
34.3536
34.3571
34.3538
34.3428
34.3249
34.3013
34.2741
34.2454
34.2175
34.1922
34.1711
34.1557
34.1468
692.071
764.953
763.657
759.123
752.959
744.36
733.515
721.122
707.86
694.384
681.47
670.087
661.413
656.778
657.485
664.544
678.235
697.507
719.56
739.98
753.24
749.214
667.738
550.311
623.026
621.645
617.777
611.7
602.508
590.638
576.846
561.725
545.843
529.926
514.869
501.834
492.213
487.438
488.888
497.237
512.005
531.095
548.764
554.247
527.256
428.749
407.799
479.824
477.906
474.074
467.348
457.013
443.699
428.075
410.485
391.288
371.165
350.786
331.445
314.749
302.173
295.738
297.121
309.37
328.696
350.489
362.822
347.979
292.96
263.982
335.464
332.224
327.998
320.019
307.925
292.579
274.732
254.227
231.348
208.162
183.637
160.013
138.004
118.119
102.946
94.8277
95.3134
110.823
151.239
180.124
182.442
166.056
124.226
188.625
186.322
180.722
171.289
157.519
140.264
121.818
101.206
72.9362
48.2744
20.8373
4.32692
-2.85719
-3.25283
-3.54925
-3.62987
-3.3415
-3.21844
-1.64488
5.8185
32.0356
52.4659
28.5847
46.6644
43.3994
37.6192
29.56
19.2374
8.11975
1.53878
-2.85835
-3.3571
-3.85642
-3.80751
-3.91854
-4.05269
-4.00373
-4.04912
-4.20943
-4.25233
-4.03374
-3.79547
-3.88837
-4.61302
-4.87061
-3.89597
-3.70033
-3.71635
-3.73551
-3.73012
-3.61423
-3.59345
-3.64937
-3.65144
-3.70726
-3.96566
-4.16483
-4.28191
-4.3721
-4.37687
-4.3559
-4.39126
-4.54782
-4.5148
-4.66212
-4.94392
-5.17191
-5.46071
-4.01193
-3.86689
-3.88192
-3.88873
-3.8802
-3.85045
-3.83325
-3.8401
-3.84666
-3.98329
-4.32655
-4.56265
-4.71503
-4.8298
-4.86225
-4.82396
-4.83647
-5.12757
-5.08138
-5.0962
-5.24158
-5.43338
-5.67178
-4.19217
-4.07732
-4.07247
-4.07372
-4.07382
-4.07205
-4.07633
-4.08827
-4.09201
-4.40878
-4.67765
-4.84085
-5.02614
-5.21625
-5.33487
-5.32618
-5.2691
-5.24855
-5.25382
-5.33169
-5.4759
-5.66473
-5.89596
-4.36741
-4.26861
-4.26564
-4.27047
-4.28081
-4.29703
-4.32315
-4.36395
-4.42587
-4.71601
-4.86696
-5.03965
-5.27818
-5.61751
-5.89046
-5.91826
-5.6212
-5.3946
-5.38709
-5.51019
-5.67032
-5.85857
-6.07862
-4.54285
-4.45443
-4.45833
-4.46945
-4.48865
-4.51789
-4.56133
-4.62673
-4.73632
-4.90411
-5.03634
-5.18112
-5.3678
-5.59865
-5.80504
-5.82572
-5.63713
-5.48298
-5.52731
-5.66752
-5.83952
-6.03309
-6.24729
-4.72116
-4.63818
-4.64812
-4.66512
-4.69103
-4.7282
-4.78015
-4.85261
-4.9544
-5.08318
-5.18909
-5.29424
-5.40954
-5.5295
-5.61181
-5.62012
-5.57964
-5.59116
-5.68604
-5.83574
-6.01287
-6.2098
-6.42024
-4.90113
-4.82068
-4.83441
-4.85553
-4.8857
-4.92677
-4.98101
-5.05088
-5.13845
-5.23968
-5.32958
-5.4171
-5.50142
-5.57592
-5.62936
-5.65928
-5.69075
-5.75831
-5.87263
-6.02422
-6.20262
-6.39991
-6.60735
-5.07986
-5.00095
-5.0166
-5.04002
-5.0725
-5.11515
-5.16901
-5.2347
-5.31165
-5.3957
-5.47785
-5.55547
-5.62742
-5.6912
-5.74644
-5.79914
-5.86386
-5.9553
-6.07894
-6.23271
-6.41169
-6.60834
-6.81538
-5.25489
-5.17761
-5.19392
-5.21848
-5.25196
-5.29488
-5.34756
-5.40987
-5.48051
-5.55625
-5.63229
-5.70564
-5.77548
-5.84194
-5.90782
-5.97917
-6.06451
-6.17115
-6.30267
-6.45963
-6.63991
-6.83825
-7.04957
-5.42468
-5.34934
-5.36576
-5.39072
-5.42453
-5.46727
-5.51886
-5.57882
-5.6458
-5.71743
-5.79093
-5.86443
-5.93779
-6.01221
-6.09075
-6.17819
-6.27985
-6.39968
-6.53988
-6.7021
-6.88689
-7.09177
-7.31244
-5.58822
-5.51538
-5.53177
-5.55687
-5.59067
-5.63315
-5.68406
-5.74275
-5.8081
-5.87855
-5.95254
-6.02926
-6.10903
-6.19323
-6.28451
-6.38668
-6.50332
-6.63638
-6.78704
-6.95795
-7.1522
-7.36903
-7.60437
-5.74535
-5.67533
-5.69164
-5.71676
-5.75059
-5.793
-5.84374
-5.90226
-5.96771
-6.03915
-6.11588
-6.1978
-6.28535
-6.3797
-6.48325
-6.59939
-6.73075
-6.87803
-7.04188
-7.22581
-7.43451
-7.66847
-7.92482
-5.89567
-5.82878
-5.84506
-5.87026
-5.90427
-5.947
-5.99824
-6.05757
-6.12444
-6.19843
-6.27943
-6.36764
-6.46339
-6.56772
-6.6832
-6.81314
-6.95967
-7.12292
-7.3031
-7.50378
-7.731
-7.98695
-8.2706
-6.03885
-5.97547
-5.99177
-6.01717
-6.05162
-6.09505
-6.14732
-6.20821
-6.27753
-6.35522
-6.44143
-6.53629
-6.64016
-6.75452
-6.8822
-7.02626
-7.1886
-7.3693
-7.56799
-7.78812
-8.03721
-8.31938
-8.63623
-6.17442
-6.11485
-6.13137
-6.15721
-6.19235
-6.23679
-6.29056
-6.35372
-6.4263
-6.50838
-6.60001
-6.70141
-6.81352
-6.93845
-7.07881
-7.23697
-7.41501
-7.61358
-7.83225
-8.07438
-8.34834
-8.66066
-9.01604
-6.3025
-6.2468
-6.26365
-6.29007
-6.3261
-6.37189
-6.42769
-6.49367
-6.5699
-6.65633
-6.75309
-6.861
-6.98188
-7.1179
-7.27066
-7.44206
-7.63518
-7.85215
-8.09273
-8.35931
-8.66048
-9.00546
-9.40202
-6.42277
-6.3712
-6.38838
-6.4154
-6.45245
-6.49985
-6.55798
-6.62698
-6.70674
-6.79718
-6.89892
-7.0137
-7.14374
-7.29048
-7.45458
-7.63842
-7.84688
-8.08321
-8.34687
-8.63939
-8.96879
-9.34587
-9.782
-6.53461
-6.48747
-6.50499
-6.53265
-6.57081
-6.61996
-6.68049
-6.75238
-6.83534
-6.92955
-7.03643
-7.15832
-7.29714
-7.45349
-7.62811
-7.82467
-8.04889
-8.30398
-8.59016
-8.9091
-9.2667
-9.67333
-10.1416
-6.63775
-6.59517
-6.61311
-6.64153
-6.68089
-6.73179
-6.79454
-6.86895
-6.95468
-7.05248
-7.16447
-7.29306
-7.43961
-7.60461
-7.78978
-7.99936
-8.23843
-8.51054
-8.81799
-9.16296
-9.54928
-9.98382
-10.4747
-6.7319
-6.69414
-6.71252
-6.74165
-6.78213
-6.83455
-6.89913
-6.97547
-7.06347
-7.16452
-7.2812
-7.41557
-7.56875
-7.74199
-7.93766
-8.15945
-8.41197
-8.69969
-9.02686
-9.39735
-9.81333
-10.2782
-10.7958
-6.81631
-6.78372
-6.80239
-6.83204
-6.87334
-6.92691
-6.9928
-7.07053
-7.16034
-7.26426
-7.38493
-7.52402
-7.68297
-7.86391
-8.0691
-8.30168
-8.56638
-8.86841
-9.21409
-9.6088
-10.055
-10.5572
-11.1187
-6.89061
-6.86315
-6.88197
-6.91193
-6.9538
-7.00817
-7.07494
-7.15361
-7.24484
-7.35109
-7.47483
-7.61752
-7.78123
-7.96863
-8.18162
-8.42319
-8.69856
-9.01377
-9.37603
-9.79269
-10.2692
-10.8129
-11.4341
-6.95538
-6.93262
-6.95151
-6.98165
-7.02387
-7.07871
-7.14593
-7.22507
-7.31715
-7.42488
-7.55049
-7.69544
-7.86243
-8.05441
-8.27294
-8.52132
-8.80556
-9.13173
-9.50796
-9.94378
-10.447
-11.028
-11.7049
-7.01126
-6.9929
-7.01175
-7.04188
-7.08413
-7.13897
-7.20605
-7.28499
-7.37706
-7.48509
-7.61113
-7.75674
-7.9251
-8.11924
-8.34069
-8.59331
-8.88339
-9.2174
-9.60452
-10.0553
-10.5787
-11.187
-11.8967
-7.0583
-7.0443
-7.06292
-7.09272
-7.13452
-7.18874
-7.25499
-7.33289
-7.42389
-7.53084
-7.65574
-7.80023
-7.96768
-8.16119
-8.38255
-8.63591
-8.9278
-9.26562
-9.65946
-10.1201
-10.6584
-11.2875
-12.016
-7.09619
-7.08656
-7.10471
-7.13381
-7.17465
-7.22761
-7.29226
-7.36825
-7.45704
-7.56149
-7.68363
-7.82508
-7.98908
-8.17877
-8.39635
-8.64615
-8.93494
-9.27131
-9.6666
-10.1326
-10.6834
-11.3348
-12.0933
-7.12474
-7.11939
-7.13686
-7.1649
-7.20426
-7.25532
-7.31765
-7.39085
-7.47631
-7.57685
-7.69457
-7.83091
-7.98864
-8.17089
-8.38041
-8.62184
-8.90209
-9.23078
-9.62048
-10.0857
-10.6455
-11.3227
-12.1366
-7.14408
-7.14286
-7.15944
-7.18608
-7.22349
-7.27205
-7.33135
-7.40094
-7.48199
-7.57726
-7.68881
-7.81775
-7.96619
-8.13728
-8.33448
-8.56265
-8.82857
-9.1419
-9.51609
-9.9691
-10.5258
-11.223
-12.1072
-7.15469
-7.15729
-7.17281
-7.19774
-7.23276
-7.27825
-7.33386
-7.39907
-7.47476
-7.56339
-7.6669
-7.78603
-7.92237
-8.07916
-8.26036
-8.47043
-8.71516
-9.00342
-9.34864
-9.77086
-10.3011
-10.9884
-11.9112
-7.15713
-7.16313
-7.1774
-7.20037
-7.23261
-7.27453
-7.32586
-7.38599
-7.45539
-7.53604
-7.62965
-7.73684
-7.85899
-7.99926
-8.16116
-8.34786
-8.56372
-8.81639
-9.11831
-9.48858
-9.95747
-10.5761
-11.4363
-7.1518
-7.16091
-7.17385
-7.19467
-7.22381
-7.26172
-7.30824
-7.36264
-7.42487
-7.49629
-7.57851
-7.67236
-7.77912
-7.9011
-8.04033
-8.19851
-8.379
-8.58796
-8.83447
-9.13251
-9.50525
-9.99052
-10.6585
-7.13936
-7.15114
-7.16279
-7.18134
-7.20714
-7.24069
-7.28191
-7.32998
-7.38426
-7.44553
-7.51553
-7.59549
-7.68602
-7.78779
-7.90144
-8.02792
-8.16977
-8.33022
-8.51323
-8.72585
-8.98043
-9.29524
-9.70026
-7.12077
-7.13526
-7.14568
-7.16189
-7.18422
-7.21315
-7.24868
-7.28989
-7.3357
-7.38649
-7.44421
-7.51018
-7.58372
-7.66374
-7.75065
-7.84534
-7.94786
-8.05778
-8.17463
-8.29923
-8.43361
-8.57988
-8.73797
-7.09391
-7.11249
-7.12183
-7.13569
-7.15446
-7.17856
-7.20802
-7.24193
-7.27903
-7.31949
-7.36518
-7.41695
-7.47286
-7.53101
-7.592
-7.65603
-7.72028
-7.78124
-7.8362
-7.88118
-7.911
-7.91788
-7.89059
-7.07037
-7.0858
-7.09415
-7.1057
-7.12095
-7.14014
-7.16329
-7.18969
-7.21831
-7.24908
-7.28316
-7.32067
-7.35924
-7.397
-7.43405
-7.46875
-7.49704
-7.51451
-7.51623
-7.49531
-7.44293
-7.34896
-7.20225
-7.01994
-7.06352
-7.07112
-7.08064
-7.09262
-7.10714
-7.12416
-7.14342
-7.16446
-7.18692
-7.21054
-7.23466
-7.25781
-7.27828
-7.29472
-7.30409
-7.30239
-7.28508
-7.2461
-7.1769
-7.06847
-6.91157
-6.69833
-12.3887
34.1078
36.3055
34.474
236.891
77.9763
-38.4399
31.4052
203.063
149.169
107.77
68.1351
132.849
110.927
91.29
74.217
53.5263
49.2515
45.9288
42.2941
-3.05824
1.96708
8.57667
10.504
-5.77798
-5.91546
-6.14668
-6.4956
-5.96179
-6.14637
-6.31985
-6.49588
-6.13873
-6.29055
-6.44696
-6.59871
-6.2939
-6.42149
-6.54896
-6.67162
-6.44586
-6.56156
-6.67724
-6.79002
-6.60975
-6.72031
-6.83208
-6.94087
-6.79353
-6.90331
-7.01381
-7.11974
-7.00321
-7.11376
-7.22308
-7.32858
-7.24258
-7.35469
-7.46553
-7.57564
-7.5147
-7.63217
-7.75001
-7.86871
-7.82281
-7.95131
-8.08125
-8.21274
-8.16703
-8.3114
-8.45944
-8.61091
-8.54397
-8.70959
-8.88236
-9.06082
-8.94802
-9.13982
-9.34155
-9.55263
-9.37037
-9.58975
-9.82363
-10.0737
-9.80076
-10.0486
-10.3178
-10.6124
-10.2239
-10.5
-10.8037
-11.1447
-10.6134
-10.907
-11.2352
-11.6194
-10.951
-11.2309
-11.5246
-11.8372
-11.2798
-11.5489
-11.808
-12.0486
-11.647
-11.9437
-12.2373
-12.5208
-12.0488
-12.4168
-12.8172
-13.2547
-12.4045
-12.851
-13.3753
-14.0295
-12.6234
-13.0786
-13.605
-14.2296
-12.7323
-13.1511
-13.5953
-14.0378
-12.8282
-13.2497
-13.6788
-14.0954
-12.9538
-13.4424
-13.9628
-14.4916
-13.0699
-13.692
-14.3812
-15.1094
-13.0328
-13.8204
-14.8105
-16.0572
-12.5625
-13.405
-14.5314
-16.1283
-11.5264
-12.1686
-13.0097
-14.1934
-10.1783
-10.4968
-10.8724
-11.3003
-8.8841
-8.95829
-9.02446
-9.06635
-7.82452
-7.7659
-7.68742
-7.58402
-7.02464
-6.90877
-6.78037
-6.64196
-6.46845
-6.33133
-6.19204
-6.05916
34.1807
34.2922
34.2695
34.2582
34.258
34.2688
34.2817
34.2887
34.2868
34.2756
34.256
34.2297
34.1991
34.1667
34.135
34.1061
34.0819
34.0643
34.0541
34.0622
34.2001
34.2039
34.1207
34.1091
34.1381
34.166
34.1803
34.1811
34.1691
34.1455
34.1128
34.0744
34.0338
33.9938
33.9572
33.9264
33.9036
33.8903
28.2483
-0.34513
32.5572
33.9031
33.9071
33.9997
34.0621
34.0803
34.0841
34.0705
34.0407
33.9985
33.9491
33.8972
33.8462
33.7992
33.7592
33.7292
33.7116
53.9346
21.4761
8.66057
16.9097
33.4229
33.7843
33.9968
33.9869
33.9983
33.9828
33.9435
33.8862
33.8215
33.7552
33.6899
33.6289
33.5764
33.5365
33.5131
37.6329
28.4337
20.79
12.8185
9.81415
20.8443
33.7569
33.9329
33.9219
33.9129
33.8564
33.7738
33.6889
33.6048
33.5215
33.4421
33.3725
33.3194
33.2881
11.6883
10.914
10.9451
14.5045
15.5288
18.6941
20.9419
33.1293
33.6931
33.8964
33.7805
33.6527
33.5454
33.4424
33.3367
33.2327
33.1401
33.0688
33.0266
-6.70108
-5.12067
5.61663
5.56618
5.22358
9.50232
16.865
16.5956
21.882
34.0911
33.6769
33.5008
33.382
33.2641
33.1301
32.9923
32.8676
32.7713
32.7143
-6.70347
-6.966
-7.08608
-7.2686
-4.52772
7.75735
3.19964
7.32361
16.2285
22.8894
33.3667
33.2728
33.1951
33.0684
32.8941
32.7069
32.5373
32.4073
32.3309
-6.77155
-6.99232
-7.18664
-7.38909
-7.55828
-7.72502
-7.23065
5.1504
-1.89724
15.2446
21.9676
32.9207
32.9996
32.857
32.6127
32.3528
32.1219
31.9484
31.8479
-6.82403
-7.04469
-7.25463
-7.45427
-7.64278
-7.8111
-7.94238
-8.09988
-5.26647
-0.860912
12.0197
24.3707
32.931
32.6065
32.2473
31.8874
31.58
31.3553
31.2273
-6.93171
-7.14785
-7.3582
-7.56092
-7.74991
-7.91507
-8.04694
-8.13838
-8.16297
-7.74164
-9.86755
13.5375
30.9848
32.1663
31.7127
31.2405
30.8521
30.5764
30.4224
-7.07662
-7.29146
-7.50487
-7.70884
-7.89451
-8.05459
-8.18173
-8.27309
-8.34888
-8.50301
-7.50365
-4.35152
20.4919
31.3051
30.8747
30.3077
29.8605
29.5509
29.3813
-7.25318
-7.47234
-7.69061
-7.89727
-8.0814
-8.23559
-8.35415
-8.43807
-8.49878
-8.55398
-8.54966
-18.2509
11.0777
29.0577
29.5442
28.9564
28.5195
28.2185
28.0561
-7.46629
-7.69548
-7.9209
-8.13181
-8.31735
-8.46708
-8.57156
-8.63245
-8.65972
-8.66528
-8.66343
-7.94092
2.41415
25.9485
27.4115
27.0442
26.7602
26.5404
26.4195
-7.7223
-7.96632
-8.20483
-8.426
-8.61797
-8.76453
-8.85296
-8.87741
-8.85458
-8.82495
-8.79881
-9.07027
-6.06758
17.2675
24.3364
24.528
24.5809
24.5263
24.483
-8.02756
-8.29523
-8.55833
-8.80151
-9.00853
-9.1593
-9.22693
-9.19621
-9.09849
-8.99429
-8.93351
-9.04683
0.928958
13.2056
21.1341
21.7424
22.1154
22.2521
22.3043
-8.39016
-8.6962
-9.00019
-9.28174
-9.52262
-9.69482
-9.73948
-9.62275
-9.40704
-9.18881
-9.00601
-8.85572
3.48112
12.3983
18.1342
18.9455
19.5295
19.8323
19.9749
-8.81614
-9.1801
-9.54826
-9.90689
-10.2421
-10.4962
-10.523
-10.2659
-9.84898
-9.43087
-9.11643
-8.92341
2.71277
11.0879
15.0023
16.1483
16.9258
17.3758
17.6002
-9.30495
-9.75551
-10.246
-10.8175
-11.424
-11.8555
-11.7582
-11.3197
-10.601
-9.81041
-9.28976
-9.20252
0.503871
7.43635
11.1137
13.3891
14.4122
14.9897
15.2797
-9.8494
-10.4233
-11.1292
-11.9833
-12.8765
-13.6196
-13.5016
-13.1015
-11.9861
-10.4835
-9.53866
-8.27114
2.26706
9.40485
9.34569
11.0625
12.1328
12.7697
13.0976
-10.4337
-11.159
-12.0627
-12.9479
-13.9479
-15.0932
-15.2894
-14.8729
-13.611
-11.3712
-10.2454
-11.9274
3.24166
4.74507
7.77104
9.158
10.1354
10.7685
11.1057
-11.0455
-11.9872
-12.9576
-13.6402
-15.3904
-17.0724
-17.1584
-16.5823
-15.0366
-12.4709
-11.3355
-0.0121027
5.41271
4.14089
6.11014
7.46593
8.38925
8.995
9.32068
-11.6647
-13.0034
-13.5991
-14.0292
-18.4276
-18.9104
-18.4996
-17.6927
-15.7295
-13.1292
-8.40906
-0.640711
1.95318
3.39359
4.89276
6.05161
6.88484
7.44163
7.73977
-12.2767
-14.2271
-14.1254
-14.7152
-17.867
-18.9383
-18.7012
-17.8367
-16.3751
-12.4697
1.41331
0.511915
1.44863
2.66829
3.88805
4.86205
5.59213
6.08905
6.35513
-12.3146
-13.574
-15.1178
-16.5024
-20.0688
-18.2152
-18.1904
-17.983
-15.4115
-1.724
-0.914889
-0.198617
0.852804
2.00089
3.01731
3.84444
4.47553
4.90885
5.14363
-12.3004
-12.189
-14.4711
-15.5062
-16.8425
-17.744
-18.1621
-18.007
-4.54757
-1.96912
-1.49308
-0.6026
0.43853
1.41473
2.25841
2.95962
3.50046
3.8744
4.07887
-12.872
-13.258
-13.511
-15.132
-18.2351
-18.5755
-18.6134
-6.71948
-2.62727
-2.29922
-1.69035
-0.825333
0.0637936
0.876508
1.5856
2.17858
2.63981
2.96031
3.13651
-13.85
-13.9474
-15.0093
-15.5575
-15.5674
-30.7562
-11.6581
-3.11654
-2.83938
-2.4211
-1.77875
-1.03143
-0.293078
0.383786
0.979664
1.47884
1.87029
2.14419
2.29555
-15.0598
-17.6655
-14.1064
-14.1882
-18.9591
-34.902
-5.08201
-3.52135
-3.04874
-2.52772
-1.90368
-1.26164
-0.643482
-0.0754316
0.424003
0.842758
1.17492
1.40683
1.53579
-15.088
-15.1044
-5.227
-10.112
-19.6256
-27.6245
-7.62609
-4.38818
-3.37486
-2.67712
-2.07584
-1.5106
-0.986201
-0.510034
-0.0933287
0.258259
0.537462
0.732112
0.840774
-14.493
-13.6334
-6.34422
-7.37298
-10.3097
-11.0133
-6.94103
-4.60888
-3.50305
-2.81462
-2.25952
-1.76858
-1.32454
-0.926693
-0.579439
-0.286524
-0.0547895
0.107611
0.198122
-14.4486
-14.2475
-4.33792
-5.4855
-6.37858
-6.28579
-5.1333
-4.14635
-3.44842
-2.90629
-2.44499
-2.03278
-1.66209
-1.3318
-1.0428
-0.800765
-0.610345
-0.476593
-0.402042
-15.0382
-14.8756
-6.36285
-3.87619
-4.89185
-4.75965
-4.29077
-3.81925
-3.39023
-3.00009
-2.63928
-2.30642
-2.00293
-1.73054
-1.49226
-1.29284
-1.13631
-1.02787
-0.967168
-16.0098
-15.5146
-23.1977
-10.276
-5.11896
-4.08943
-3.84315
-3.63962
-3.39339
-3.12495
-2.85393
-2.59255
-2.34736
-2.12638
-1.93379
-1.76924
-1.64016
-1.55206
-1.50291
-18.1234
-20.8929
-49.3811
-6.77089
-4.20418
-3.46592
-3.61449
-3.60581
-3.47914
-3.29695
-3.09579
-2.89262
-2.69699
-2.52122
-2.36782
-2.23489
-2.12839
-2.05587
-2.01699
-19.0619
-26.0318
-40.2553
-7.67351
-2.65981
-3.33033
-3.65587
-3.71359
-3.64447
-3.51686
-3.36632
-3.20959
-3.05626
-2.91665
-2.79591
-2.69147
-2.60623
-2.54719
-2.51673
-16.58
-26.9163
-25.7938
-8.03693
-4.3524
-3.90783
-3.93534
-3.93475
-3.87419
-3.77709
-3.66335
-3.54427
-3.42607
-3.31676
-3.22114
-3.14091
-3.07683
-3.03086
-3.0062
-12.0036
-13.1852
-10.785
-6.6755
-4.86627
-4.37969
-4.26398
-4.20775
-4.14578
-4.06943
-3.98297
-3.89327
-3.80529
-3.72203
-3.64802
-3.58709
-3.54086
-3.50772
-3.48865
-9.10132
-8.72636
-7.30773
-5.83267
-5.01813
-4.6926
-4.56378
-4.49736
-4.44367
-4.38593
-4.3218
-4.25586
-4.19164
-4.13254
-4.07899
-4.03389
-4.00097
-3.97868
-3.96622
-7.41469
-6.91781
-6.19597
-5.5369
-5.13635
-4.93963
-4.84842
-4.79847
-4.75986
-4.72092
-4.6778
-4.63114
-4.58693
-4.548
-4.51338
-4.48366
-4.46113
-4.44609
-4.43813
-6.45057
-6.09558
-5.74139
-5.45809
-5.28096
-5.18805
-5.14163
-5.11585
-5.09518
-5.072
-5.04663
-5.0197
-4.99218
-4.96898
-4.95072
-4.93533
-4.92249
-4.91181
-4.90471
-5.91156
-5.74747
-5.62969
-5.54648
-5.49706
-5.47193
-5.46061
-5.45413
-5.44691
-5.43836
-5.42912
-5.4183
-5.4069
-5.39745
-5.39095
-5.38645
-5.38218
-5.37615
-5.37012
1287.71
1290.78
1285.78
1276.08
1265.94
1256.06
1246.18
1236.18
1226.38
1217.49
1210.49
1206.62
1207.32
1214.28
1229.65
1255.79
1295.18
1347.9
1394.28
1403.72
1397.47
1306.77
1427.43
1227.95
1230.99
1225.98
1216.44
1206.45
1196.62
1186.71
1176.65
1166.77
1157.78
1150.68
1146.68
1147.21
1153.93
1168.66
1193.24
1229.28
1275.52
1322.03
1349.3
1356.76
1177.86
1329.98
1167
1169.98
1164.98
1155.78
1146.1
1136.38
1126.41
1116.2
1106.13
1096.94
1089.59
1085.3
1085.47
1091.7
1105.65
1128.79
1161.8
1202.09
1240.95
1272.15
1270.79
1098.45
1253.38
1104.92
1107.82
1102.86
1094.17
1084.93
1075.35
1065.27
1054.82
1044.47
1034.94
1027.22
1022.47
1022.08
1027.58
1040.46
1061.9
1091.94
1127.82
1162.42
1186.29
1179.96
1104.55
1262.09
1041.8
1044.59
1039.76
1031.71
1022.97
1013.5
1003.25
992.495
981.758
971.787
963.533
958.157
957.008
961.542
973.135
992.684
1019.9
1052.05
1083.18
1105.44
1112.29
1125.32
1283.22
977.763
980.432
975.809
968.468
960.224
950.827
940.344
929.197
917.981
907.443
898.515
892.335
890.222
893.576
903.669
921.227
945.788
974.79
1003.24
1025.55
1042.1
1088.13
1231.97
912.967
915.506
911.158
904.53
896.705
887.297
876.515
864.909
853.12
841.889
832.13
824.959
821.67
823.625
832.029
847.517
869.578
895.866
922.133
944.177
964.389
1007.87
1105.12
847.591
849.952
845.915
839.939
832.413
822.898
811.749
799.613
787.151
775.092
764.332
755.966
751.272
751.594
758.114
771.457
791.144
815.032
839.311
860.021
877.156
898.046
893.786
34.753
34.7581
34.7606
34.7607
34.7602
34.7592
34.7565
34.7511
34.7421
34.7293
34.7131
34.6947
34.675
34.6555
34.6372
34.6216
34.6094
34.6013
34.5977
34.6934
34.6992
34.7017
34.7017
34.7012
34.7004
34.6979
34.6926
34.6837
34.6708
34.6546
34.6359
34.6161
34.5963
34.578
34.5622
34.5498
34.5416
34.538
34.6327
34.6404
34.6428
34.6425
34.6422
34.6417
34.6397
34.6348
34.6259
34.613
34.5965
34.5774
34.557
34.5367
34.5179
34.5017
34.4889
34.4805
34.4769
34.5707
34.5815
34.584
34.5831
34.5829
34.5832
34.5819
34.5775
34.5689
34.5558
34.5388
34.519
34.4978
34.4767
34.457
34.44
34.4267
34.4179
34.414
34.506
34.5229
34.5249
34.5233
34.5235
34.5248
34.5246
34.5209
34.5126
34.4993
34.4817
34.4609
34.4385
34.4161
34.3953
34.3772
34.3631
34.3537
34.3496
34.4361
34.464
34.466
34.463
34.4637
34.4664
34.4678
34.4652
34.4572
34.4436
34.4251
34.403
34.379
34.355
34.3326
34.3132
34.298
34.2878
34.2832
34.3549
34.4055
34.4072
34.4018
34.4034
34.4082
34.4116
34.4103
34.4027
34.3887
34.3691
34.3454
34.3195
34.2934
34.269
34.2478
34.2312
34.2201
34.2152
34.2996
34.3469
34.3477
34.3392
34.3423
34.35
34.3561
34.3564
34.3493
34.3347
34.3136
34.288
34.2598
34.2312
34.2044
34.181
34.1627
34.1504
34.1449
763.246
765.075
761.551
756.312
748.975
739.177
727.467
714.56
701.105
687.801
675.518
665.33
658.507
656.39
660.18
670.581
687.306
708.43
730.295
747.899
754.494
724.806
411.063
621.896
622.914
619.889
615.11
607.486
596.858
583.941
569.418
553.838
537.837
522.226
508.014
496.508
489.128
487.316
492.214
503.862
521.28
540.63
553.959
546.465
489.622
349.238
479.502
479.219
476.228
471.168
462.604
450.678
436.149
419.511
401.047
381.301
360.958
340.873
322.683
307.805
298.098
295.306
302.099
318.393
339.721
359.081
359.59
326.816
246.46
336.283
333.873
330.444
324.553
314.445
300.587
283.963
264.838
242.893
219.804
196.141
171.553
148.815
127.263
110.06
97.4207
95.2065
98.9197
129.409
170.358
183.166
177.209
149.128
189.773
188.286
183.949
176.48
165.063
148.992
131.249
111.882
86.5994
59.912
37.1242
10.5939
0.0815308
-3.3075
-3.39665
-3.62626
-3.49031
-3.35766
-2.63835
0.592618
16.1644
45.0764
55.3376
56.4823
46.2958
40.6836
33.7665
25.5312
12.142
4.63648
-1.15023
-3.02741
-3.65885
-3.85988
-3.82967
-4.01227
-4.03622
-4.00707
-4.12059
-4.26271
-4.16265
-3.90721
-3.77813
-4.13168
-4.92029
-4.38566
-3.28077
-3.71495
-3.72769
-3.73818
-3.69522
-3.58004
-3.62406
-3.66189
-3.65213
-3.8243
-4.0855
-4.22296
-4.33646
-4.38314
-4.36598
-4.35383
-4.48026
-4.57478
-4.53868
-4.8134
-5.05343
-5.30561
-5.64869
-3.88262
-3.87509
-3.88694
-3.8869
-3.86741
-3.83756
-3.83582
-3.84409
-3.87961
-4.15211
-4.46602
-4.64151
-4.78013
-4.85752
-4.84852
-4.80476
-4.96654
-5.14101
-5.05899
-5.16157
-5.33335
-5.54396
-5.82331
-4.09436
-4.0733
-4.07286
-4.07415
-4.07285
-4.07291
-4.08125
-4.09164
-4.20066
-4.57124
-4.76421
-4.92895
-5.1244
-5.28984
-5.34472
-5.30101
-5.25015
-5.24671
-5.28224
-5.39731
-5.56534
-5.77448
-6.02942
-4.27514
-4.26587
-4.26726
-4.27501
-4.28806
-4.30874
-4.34131
-4.38289
-4.56437
-4.79537
-4.94845
-5.1496
-5.43274
-5.77935
-5.93846
-5.78098
-5.48403
-5.3646
-5.44084
-5.5872
-5.76049
-5.96471
-6.19921
-4.45371
-4.45565
-4.46294
-4.47798
-4.50181
-4.53751
-4.59052
-4.67058
-4.81386
-4.97294
-5.10576
-5.26719
-5.48061
-5.71359
-5.85
-5.74654
-5.53576
-5.48625
-5.59105
-5.7509
-5.9335
-6.13797
-6.3596
-4.63378
-4.64256
-4.65562
-4.67683
-4.70802
-4.75202
-4.81308
-4.89854
-5.01802
-5.14016
-5.24001
-5.35077
-5.46955
-5.57769
-5.62692
-5.59868
-5.57483
-5.62929
-5.75635
-5.9216
-6.10917
-6.31376
-6.52788
-4.81506
-4.82689
-4.84391
-4.86938
-4.90475
-4.95209
-5.01385
-5.09229
-5.18826
-5.2867
-5.37327
-5.45999
-5.54047
-5.60598
-5.64639
-5.67234
-5.71866
-5.80999
-5.94456
-6.11057
-6.29944
-6.50271
-6.71291
-4.99527
-5.008
-5.02723
-5.05506
-5.09248
-5.14063
-5.20037
-5.27193
-5.35326
-5.43762
-5.51709
-5.59238
-5.66041
-5.71975
-5.77235
-5.82893
-5.90564
-6.01312
-6.15234
-6.31945
-6.50831
-6.71076
-6.92164
-5.17224
-5.1848
-5.20513
-5.23407
-5.27222
-5.32
-5.37755
-5.44431
-5.51803
-5.59454
-5.66932
-5.74106
-5.80902
-5.87467
-5.9423
-6.01956
-6.11485
-6.23371
-6.37802
-6.54711
-6.73719
-6.94243
-7.15891
-5.3442
-5.35653
-5.37714
-5.40651
-5.44479
-5.49197
-5.54786
-5.61156
-5.68121
-5.75412
-5.82771
-5.9011
-5.97472
-6.0507
-6.13301
-6.22695
-6.33733
-6.46713
-6.61815
-6.79174
-6.98709
-7.20031
-7.42707
-5.51042
-5.52249
-5.54323
-5.57268
-5.61083
-5.65759
-5.71249
-5.77468
-5.84279
-5.91517
-5.99056
-6.06871
-6.15044
-6.23776
-6.33399
-6.44303
-6.56773
-6.70938
-6.86972
-7.05209
-7.25804
-7.48447
-7.72773
-5.67047
-5.68239
-5.70311
-5.73259
-5.77073
-5.81736
-5.87208
-5.93419
-6.00274
-6.07687
-6.15618
-6.24082
-6.33156
-6.43012
-6.53954
-6.66308
-6.8024
-6.95773
-7.13101
-7.32692
-7.54849
-7.79384
-8.06092
-5.824
-5.83581
-5.85656
-5.88617
-5.92455
-5.97158
-6.02693
-6.0901
-6.16056
-6.23805
-6.32262
-6.41453
-6.51436
-6.62385
-6.74617
-6.88429
-7.03923
-7.21077
-7.4005
-7.61379
-7.85546
-8.12512
-8.42333
-5.97074
-5.98249
-6.00334
-6.03328
-6.07222
-6.12009
-6.1767
-6.24183
-6.31532
-6.39725
-6.48777
-6.58704
-6.69587
-6.81649
-6.95202
-7.10509
-7.27673
-7.46632
-7.67491
-7.90866
-8.17411
-8.47297
-8.80952
-6.1101
-6.12196
-6.14313
-6.17362
-6.21341
-6.2625
-6.32097
-6.38883
-6.46615
-6.553
-6.64945
-6.75601
-6.87422
-7.00656
-7.15551
-7.32343
-7.51178
-7.7203
-7.94993
-8.20686
-8.49943
-8.83233
-9.21246
-6.24197
-6.25404
-6.27566
-6.30687
-6.34776
-6.39853
-6.4594
-6.53051
-6.61184
-6.70339
-6.80555
-6.91967
-7.04789
-7.19209
-7.35385
-7.53572
-7.74066
-7.9695
-8.22234
-8.50492
-8.82706
-9.1965
-9.62274
-6.36629
-6.37858
-6.40065
-6.43265
-6.47483
-6.52755
-6.59112
-6.66553
-6.75061
-6.84655
-6.95453
-7.0767
-7.21499
-7.37028
-7.54376
-7.73925
-7.96158
-8.21166
-8.48911
-8.79887
-9.15067
-9.5556
-10.0262
-6.48252
-6.495
-6.51753
-6.55039
-6.59398
-6.64879
-6.71503
-6.79248
-6.88098
-6.98127
-7.09535
-7.22555
-7.37312
-7.53838
-7.72326
-7.93305
-8.17256
-8.44311
-8.74535
-9.08246
-9.46314
-9.8988
-10.4031
-6.59015
-6.60289
-6.62599
-6.6598
-6.70487
-6.76169
-6.83032
-6.91039
-7.00196
-7.10654
-7.22657
-7.36406
-7.51976
-7.69444
-7.89119
-8.11497
-8.37013
-8.65979
-8.98559
-9.35055
-9.76002
-10.2217
-10.7426
-6.68904
-6.70205
-6.72571
-6.76043
-6.80682
-6.86534
-6.93586
-7.01797
-7.11221
-7.22075
-7.34609
-7.48976
-7.65274
-7.83683
-8.04504
-8.28153
-8.55121
-8.85809
-9.20645
-9.59964
-10.0391
-10.5305
-11.0712
-6.77857
-6.79175
-6.8158
-6.85119
-6.89857
-6.95835
-7.03021
-7.11383
-7.21036
-7.32237
-7.45209
-7.60088
-7.77055
-7.96334
-8.18165
-8.42973
-8.7124
-9.03528
-9.40526
-9.82515
-10.2988
-10.8304
-11.4188
-6.858
-6.87124
-6.89551
-6.93132
-6.97941
-7.04004
-7.11279
-7.19753
-7.29591
-7.41068
-7.5437
-7.69657
-7.87186
-8.07177
-8.29854
-8.55634
-8.85067
-9.18862
-9.57711
-10.0232
-10.532
-11.1128
-11.7769
-6.92747
-6.94074
-6.96512
-7.0012
-7.04971
-7.11082
-7.18399
-7.26933
-7.36888
-7.48537
-7.62041
-7.77597
-7.95519
-8.16021
-8.39308
-8.65853
-8.96301
-9.31295
-9.71792
-10.1865
-10.7268
-11.3531
-12.0888
-6.98776
-7.00099
-7.02535
-7.06144
-7.10998
-7.17103
-7.24401
-7.32921
-7.42892
-7.54578
-7.68133
-7.83785
-8.01884
-8.22641
-8.4627
-8.73331
-9.04442
-9.40359
-9.82145
-10.3071
-10.8715
-11.5276
-12.2986
-7.0392
-7.05228
-7.07637
-7.11208
-7.16009
-7.22041
-7.29245
-7.37658
-7.47521
-7.59097
-7.72536
-7.88085
-8.06108
-8.26821
-8.50484
-8.77663
-9.09037
-9.45488
-9.88077
-10.3788
-10.9608
-11.639
-12.4193
-7.08151
-7.09431
-7.11785
-7.15272
-7.19962
-7.25852
-7.3288
-7.41087
-7.50715
-7.62027
-7.75177
-7.90403
-8.08059
-8.28387
-8.51686
-8.78517
-9.09652
-9.46088
-9.88996
-10.3963
-10.9959
-11.7007
-12.5096
-7.11442
-7.12682
-7.14951
-7.18313
-7.22834
-7.28513
-7.35286
-7.43188
-7.52453
-7.63349
-7.76027
-7.90689
-8.07654
-8.27202
-8.49675
-8.75659
-9.05963
-9.41717
-9.84256
-10.3524
-10.9682
-11.712
-12.5954
-7.13805
-7.14989
-7.17146
-7.20341
-7.24638
-7.3004
-7.36483
-7.43987
-7.52768
-7.63093
-7.75101
-7.88934
-8.0487
-8.23237
-8.44431
-8.69037
-8.97856
-9.32035
-9.73127
-10.232
-10.8543
-11.639
-12.6335
-7.15272
-7.16385
-7.18407
-7.21397
-7.2542
-7.30484
-7.36526
-7.43547
-7.5173
-7.61323
-7.72446
-7.85188
-7.99796
-8.16645
-8.36148
-8.58798
-8.85312
-9.16787
-9.54835
-10.0201
-10.6209
-11.4144
-12.5015
-7.15882
-7.16916