/*--------------------------------*- C++ -*----------------------------------*\
| =========                 |                                                 |
| \\      /  F ield         | OpenFOAM: The Open Source CFD Toolbox           |
|  \\    /   O peration     | Version:  v1912                                 |
|   \\  /    A nd           | Website:  www.openfoam.com                      |
|    \\/     M anipulation  |                                                 |
\*---------------------------------------------------------------------------*/
FoamFile
{
    version     2.0;
    format      ascii;
    class       volScalarField;
    location    "0.3";
    object      p_rgh;
}
// * * * * * * * * * * * * * * * * * * * * * * * * * * * * * * * * * * * * * //

dimensions      [1 -1 -2 0 0 0 0];


internalField   nonuniform List<scalar> 
9072
(
1300.95
1304.8
1304
1295.85
1285.69
1275.69
1265.85
1255.9
1245.94
1236.48
1228.4
1222.79
1221.01
1224.61
1235.46
1255.98
1288.36
1335.03
1389.32
1416
1419.24
1360.58
1374.42
1299.44
1303.88
1303.04
1294.98
1284.99
1275.1
1265.26
1255.26
1245.22
1235.68
1227.5
1221.78
1219.85
1223.26
1233.74
1253.14
1283.38
1325.02
1373.5
1410.89
1439.13
1323.85
1276.92
1296.76
1301.76
1300.85
1292.99
1283.37
1273.69
1263.87
1253.75
1243.54
1233.8
1225.39
1219.41
1217.16
1220.16
1230.04
1248.42
1276.54
1313.85
1354.84
1389.67
1417.92
1298.18
1236.52
1293
1298.51
1297.49
1289.96
1280.88
1271.49
1261.66
1251.36
1240.88
1230.84
1222.08
1215.68
1212.93
1215.29
1224.3
1241.36
1267.22
1300.78
1337.17
1367.52
1382.1
1325.14
1328.75
1288.29
1294.21
1293.09
1286.01
1277.56
1268.49
1258.62
1248.06
1237.23
1226.77
1217.53
1210.55
1207.11
1208.62
1216.53
1232.04
1255.58
1285.8
1318.37
1346.06
1361
1358.38
1439.56
1282.8
1289
1287.8
1281.27
1273.48
1264.69
1254.71
1243.83
1232.56
1221.58
1211.72
1204.01
1199.69
1200.14
1206.72
1220.52
1241.74
1269
1298.47
1324.41
1342.66
1364.07
1461.14
1276.72
1283.01
1281.76
1275.84
1268.67
1260.07
1249.91
1238.64
1226.86
1215.25
1204.63
1196.01
1190.61
1189.78
1194.83
1206.75
1225.69
1250.29
1277.18
1301.67
1321.54
1347.69
1420.49
1270.11
1276.4
1275.12
1269.8
1263.14
1254.62
1244.21
1232.49
1220.11
1207.75
1196.21
1186.5
1179.8
1177.45
1180.75
1190.66
1207.32
1229.49
1254.13
1277
1295.41
1313.41
1336.42
34.7657
34.7703
34.7745
34.7755
34.7752
34.7745
34.7728
34.7689
34.7618
34.7508
34.7363
34.7188
34.6997
34.6799
34.6608
34.6437
34.6297
34.6195
34.6136
34.7643
34.77
34.7745
34.7754
34.7751
34.7745
34.773
34.7693
34.7622
34.7513
34.7366
34.7191
34.6997
34.6797
34.6605
34.6432
34.6291
34.6188
34.6128
34.7616
34.7693
34.7747
34.7752
34.7748
34.7745
34.7734
34.7701
34.7633
34.7524
34.7376
34.7196
34.6997
34.6792
34.6595
34.6418
34.6272
34.6166
34.6105
34.7574
34.7679
34.7749
34.7749
34.7742
34.7744
34.7742
34.7715
34.765
34.7542
34.7391
34.7205
34.6998
34.6784
34.6579
34.6394
34.6241
34.613
34.6066
34.7506
34.7653
34.7754
34.7741
34.7733
34.7743
34.7752
34.7735
34.7676
34.7567
34.7412
34.7218
34.6999
34.6773
34.6556
34.636
34.6198
34.6079
34.6011
34.7407
34.7604
34.7761
34.7732
34.7719
34.774
34.7765
34.7761
34.7709
34.7601
34.7439
34.7234
34.7001
34.6759
34.6525
34.6314
34.614
34.6012
34.5938
34.7244
34.7474
34.7791
34.7714
34.7698
34.7736
34.7782
34.7795
34.7752
34.7643
34.7474
34.7255
34.7005
34.6742
34.6487
34.6258
34.6068
34.5928
34.5847
34.7683
34.7579
34.7819
34.7682
34.7665
34.7727
34.7803
34.7839
34.7805
34.7696
34.7516
34.728
34.7008
34.6722
34.6442
34.6189
34.5979
34.5824
34.5735
1256.84
1267.12
1265.83
1261.29
1255.13
1246.53
1235.68
1223.29
1210.03
1196.55
1183.64
1172.26
1163.58
1158.95
1159.65
1166.71
1180.4
1199.68
1221.73
1242.15
1255.41
1251.38
1169.91
1240.27
1250.39
1249.01
1245.14
1239.06
1229.87
1218
1204.21
1189.09
1173.21
1157.29
1142.23
1129.2
1119.58
1114.8
1116.25
1124.6
1139.37
1158.46
1176.13
1181.61
1154.62
1056.11
1222.95
1232.38
1230.46
1226.63
1219.91
1209.57
1196.26
1180.63
1163.04
1143.85
1123.72
1103.34
1084
1067.31
1054.73
1048.3
1049.68
1061.93
1081.25
1103.05
1115.38
1100.54
1045.52
1204.33
1213.22
1209.98
1205.75
1197.77
1185.68
1170.33
1152.48
1131.98
1109.1
1085.91
1061.38
1037.72
1015.65
992.96
948.302
900.822
909.389
988.575
1028.99
1057.88
1060.19
1043.81
1189.77
1191.55
1189.26
1183.66
1174.22
1160.43
1143.14
1124.59
1103.74
1054.52
903.829
598.908
259.351
32.5649
-2.24962
-2.54629
-2.62692
-2.34054
-2.00655
26.9183
305.051
881.139
1055.41
1162.33
1006.17
1060.53
987.827
870.55
687.669
423.318
189.784
14.7942
-2.22878
-2.72722
-2.67915
-2.79037
-2.92454
-2.87558
-2.92098
-3.08129
-3.12419
-2.90134
-2.61223
-2.20021
-2.90353
-0.448192
-2.58004
-2.44699
-2.46301
-2.48216
-2.47678
-2.36089
-2.34011
-2.39603
-2.3981
-2.45376
-2.71115
-2.9008
-3.02623
-3.11875
-3.12352
-3.10256
-3.13792
-1.69781
-1.24173
-1.45785
-2.70314
-3.69948
-4.20321
-2.57081
-2.48836
-2.50339
-2.51021
-2.50168
-2.47193
-2.45473
-2.46158
-2.46813
-2.44292
-2.17797
-3.18118
-3.33639
-3.45114
-3.48371
-3.44543
-3.45794
-2.57043
-3.41568
-3.71733
-3.86302
-4.05484
-4.29325
-2.62585
-2.5736
-2.56875
-2.57
-2.5701
-2.56833
-2.57261
-2.58455
-2.41216
-1.67465
-3.12954
-3.33708
-3.5224
-3.70897
-3.53335
-3.4553
-3.76536
-3.74276
-3.74972
-3.82768
-3.97216
-4.16101
-4.39224
-2.6759
-2.6397
-2.63673
-2.64155
-2.65189
-2.66811
-2.69423
-2.73503
-1.43332
-2.91616
-3.23668
-3.40992
-3.64925
-3.08498
-3.35323
-3.38098
-3.57047
-3.76322
-3.74765
-3.87193
-4.0414
-4.22965
-4.44971
-2.72615
-2.70032
-2.70422
-2.71534
-2.73454
-2.76378
-2.80722
-2.87262
-2.82934
-2.40346
-3.27885
-3.42501
-3.61368
-3.64572
-3.81839
-3.90502
-3.66685
-3.4547
-3.77061
-3.9134
-4.08541
-4.27898
-4.49318
-2.77926
-2.75888
-2.76881
-2.78581
-2.81172
-2.84889
-2.90084
-2.9733
-3.07508
-2.60594
-3.30904
-3.41463
-3.53021
-3.65018
-3.70246
-3.69135
-3.68489
-3.71185
-3.80674
-3.95643
-4.13356
-4.33049
-4.54094
-2.83403
-2.81618
-2.8299
-2.85102
-2.8812
-2.92227
-2.97651
-3.04638
-3.13381
-3.23518
-3.31602
-3.4124
-3.49643
-3.5714
-3.62486
-3.65477
-3.68623
-3.75381
-3.86813
-4.01972
-4.19812
-4.3954
-4.60284
-2.88756
-2.87126
-2.88691
-2.91032
-2.9428
-2.98546
-3.03931
-3.105
-3.18195
-3.266
-3.34815
-3.42526
-3.49727
-3.5615
-3.61675
-3.66944
-3.73416
-3.8256
-3.94925
-4.10301
-4.28199
-4.47864
-4.68568
-2.9374
-2.92272
-2.93903
-2.96359
-2.99707
-3.03999
-3.09267
-3.15498
-3.22562
-3.30136
-3.3774
-3.45075
-3.52059
-3.58705
-3.65293
-3.72428
-3.80962
-3.91626
-4.04777
-4.20474
-4.38502
-4.58336
-4.79468
-2.98199
-2.96926
-2.98568
-3.01064
-3.04444
-3.08718
-3.13877
-3.19874
-3.26571
-3.33735
-3.41085
-3.48435
-3.55771
-3.63212
-3.71067
-3.7981
-3.89976
-4.01959
-4.1598
-4.32201
-4.5068
-4.71168
-4.93235
-3.02034
-3.01009
-3.02649
-3.05159
-3.08538
-3.12787
-3.17878
-3.23747
-3.30282
-3.37326
-3.44726
-3.52398
-3.60375
-3.68794
-3.77923
-3.8814
-3.99803
-4.1311
-4.28176
-4.45267
-4.64692
-4.86374
-5.09909
-3.05228
-3.04485
-3.06116
-3.08628
-3.12011
-3.16252
-3.21326
-3.27179
-3.33724
-3.40867
-3.48541
-3.56732
-3.65487
-3.74922
-3.85277
-3.96891
-4.10027
-4.24755
-4.4114
-4.59533
-4.80403
-5.038
-5.29434
-3.0774
-3.0731
-3.08939
-3.11459
-3.1486
-3.19132
-3.24257
-3.3019
-3.36877
-3.44275
-3.52376
-3.61196
-3.70771
-3.81205
-3.92752
-4.05747
-4.204
-4.36725
-4.54742
-4.74811
-4.97533
-5.23128
-5.51492
-3.09538
-3.09461
-3.1109
-3.1363
-3.17076
-3.21418
-3.26645
-3.32735
-3.39666
-3.47435
-3.56056
-3.65542
-3.7593
-3.87365
-4.00133
-4.14539
-4.30773
-4.48844
-4.68713
-4.90726
-5.15634
-5.43852
-5.75536
-3.10577
-3.10879
-3.12531
-3.15115
-3.18629
-3.23072
-3.2845
-3.34766
-3.42024
-3.50231
-3.59395
-3.69534
-3.80746
-3.93239
-4.07274
-4.23091
-4.40895
-4.60751
-4.82619
-5.06831
-5.34228
-5.6546
-6.00998
-3.10866
-3.11555
-3.1324
-3.15882
-3.19485
-3.24065
-3.29644
-3.36242
-3.43865
-3.52508
-3.62184
-3.72975
-3.85063
-3.98665
-4.13941
-4.31081
-4.50394
-4.7209
-4.96148
-5.22806
-5.52923
-5.87421
-6.27077
-3.10373
-3.11475
-3.13194
-3.15896
-3.196
-3.24341
-3.30154
-3.37054
-3.45029
-3.54073
-3.64248
-3.75725
-3.8873
-4.03403
-4.19814
-4.38198
-4.59044
-4.82676
-5.09042
-5.38294
-5.71235
-6.08942
-6.52555
-3.09037
-3.10583
-3.12335
-3.15101
-3.18917
-3.23832
-3.29885
-3.37074
-3.4537
-3.54791
-3.65479
-3.77668
-3.9155
-4.07185
-4.24647
-4.44303
-4.66725
-4.92234
-5.20853
-5.52746
-5.88507
-6.2917
-6.75995
-3.06831
-3.08834
-3.10628
-3.13469
-3.17406
-3.22495
-3.28771
-3.36211
-3.44785
-3.54565
-3.65764
-3.78622
-3.93277
-4.09778
-4.28294
-4.49253
-4.73159
-5.00371
-5.31116
-5.65613
-6.04244
-6.47698
-6.96788
-3.03728
-3.06211
-3.08049
-3.10962
-3.1501
-3.20252
-3.2671
-3.34344
-3.43144
-3.53249
-3.64917
-3.78354
-3.93672
-4.10996
-4.30563
-4.52742
-4.77994
-5.06766
-5.39483
-5.76532
-6.1813
-6.64612
-7.16377
-2.99649
-3.0265
-3.04516
-3.07482
-3.11612
-3.16969
-3.23557
-3.3133
-3.40311
-3.50703
-3.6277
-3.76679
-3.92575
-4.10668
-4.31187
-4.54446
-4.80916
-5.11119
-5.45686
-5.85157
-6.2978
-6.79994
-7.36152
-2.9456
-2.98073
-2.99955
-3.02951
-3.07138
-3.12575
-3.19252
-3.27119
-3.36242
-3.46867
-3.59241
-3.7351
-3.89881
-4.08621
-4.2992
-4.54077
-4.81614
-5.13135
-5.49361
-5.91027
-6.38678
-6.93045
-7.55165
-2.88517
-2.92501
-2.94389
-2.97403
-3.01626
-3.0711
-3.13831
-3.21745
-3.30953
-3.41726
-3.54288
-3.68782
-3.85482
-4.04679
-4.26532
-4.5137
-4.79794
-5.12411
-5.50034
-5.93616
-6.43942
-7.02043
-7.69731
-2.81586
-2.86008
-2.87894
-2.90907
-2.95132
-3.00616
-3.07324
-3.15218
-3.24425
-3.35228
-3.47832
-3.62393
-3.79229
-3.98643
-4.20788
-4.4605
-4.75058
-5.08459
-5.47171
-5.92244
-6.44593
-7.05417
-7.76392
-2.7377
-2.78629
-2.80491
-2.83471
-2.87651
-2.93074
-2.99698
-3.07489
-3.16589
-3.27284
-3.39774
-3.54222
-3.70967
-3.90318
-4.12455
-4.3779
-4.66979
-5.00762
-5.40145
-5.86212
-6.40039
-7.02949
-7.75803
-2.65039
-2.70336
-2.72151
-2.75061
-2.79145
-2.84441
-2.90906
-2.98505
-3.07384
-3.17829
-3.30043
-3.44188
-3.60588
-3.79557
-4.01315
-4.26295
-4.55174
-4.88811
-5.28339
-5.7494
-6.30021
-6.95158
-7.71006
-2.55375
-2.61099
-2.62846
-2.6565
-2.69587
-2.74693
-2.80925
-2.88246
-2.96791
-3.06846
-3.18617
-3.32251
-3.48024
-3.66249
-3.87202
-4.11344
-4.39369
-4.72238
-5.11208
-5.57733
-6.13711
-6.8143
-7.6282
-2.44789
-2.50926
-2.52585
-2.55249
-2.5899
-2.63845
-2.69775
-2.76734
-2.8484
-2.94367
-3.05522
-3.18415
-3.3326
-3.50369
-3.70089
-3.92906
-4.19498
-4.50831
-4.88249
-5.33551
-5.89221
-6.58941
-7.47356
-2.33332
-2.3985
-2.41402
-2.43896
-2.47397
-2.51946
-2.57507
-2.64028
-2.71597
-2.8046
-2.90812
-3.02725
-3.16358
-3.32037
-3.50158
-3.71164
-3.95637
-4.24463
-4.58985
-5.01208
-5.54236
-6.2296
-7.15238
-2.21056
-2.27916
-2.29342
-2.3164
-2.34864
-2.39056
-2.44189
-2.50202
-2.57141
-2.65206
-2.74568
-2.85287
-2.97502
-3.11528
-3.27719
-3.46389
-3.67974
-3.93242
-4.23433
-4.60461
-5.0735
-5.6921
-6.55231
-2.08004
-2.15174
-2.16468
-2.18551
-2.21464
-2.25255
-2.29907
-2.35347
-2.4157
-2.48712
-2.56934
-2.66319
-2.76995
-2.89193
-3.03116
-3.18934
-3.36983
-3.57879
-3.8253
-4.12334
-4.49608
-4.98136
-5.64933
-1.9424
-2.01678
-2.02843
-2.04698
-2.07278
-2.10632
-2.14755
-2.19562
-2.24989
-2.31116
-2.38116
-2.46113
-2.55166
-2.65343
-2.76708
-2.89356
-3.0354
-3.19585
-3.37886
-3.59149
-3.84607
-4.16087
-4.5659
-1.79862
-1.8757
-1.88612
-1.90233
-1.92466
-1.95359
-1.98912
-2.03034
-2.07614
-2.12693
-2.18465
-2.25062
-2.32416
-2.40419
-2.49109
-2.58578
-2.6883
-2.79822
-2.91507
-3.03967
-3.17406
-3.32032
-3.47841
-1.64656
-1.72774
-1.73708
-1.75094
-1.7697
-1.79381
-1.82327
-1.85717
-1.89428
-1.93473
-1.98043
-2.0322
-2.08811
-2.14626
-2.20725
-2.27128
-2.33553
-2.39649
-2.45145
-2.49643
-2.52624
-2.53312
-2.50584
-1.49782
-1.57585
-1.5842
-1.59576
-1.611
-1.6302
-1.65334
-1.67974
-1.70836
-1.73913
-1.77322
-1.81072
-1.84929
-1.88705
-1.9241
-1.95881
-1.98709
-2.00456
-2.00628
-1.98536
-1.93298
-1.83901
-1.6923
-1.32219
-1.42837
-1.43598
-1.4455
-1.45748
-1.47199
-1.48902
-1.50827
-1.52932
-1.55178
-1.5754
-1.59951
-1.62266
-1.64314
-1.65958
-1.66895
-1.66725
-1.64993
-1.61095
-1.54176
-1.43333
-1.27642
-1.06318
489.78
79.9306
57.5676
35.9481
864.254
705.18
578.347
638.296
955.621
901.726
860.323
820.684
1010.6
988.678
969.042
951.969
1056.47
1052.2
1048.88
1045.24
131.871
328.673
610.232
896.692
-4.52767
-4.65403
-4.83051
-5.12619
-4.58326
-4.76783
-4.94123
-5.11691
-4.63501
-4.78683
-4.94324
-5.09499
-4.66498
-4.79257
-4.92005
-5.0427
-4.69175
-4.80745
-4.92313
-5.03591
-4.73045
-4.841
-4.95278
-5.06157
-4.78902
-4.8988
-5.00931
-5.11523
-4.87352
-4.98406
-5.09339
-5.19888
-4.98768
-5.0998
-5.21064
-5.32075
-5.13461
-5.25208
-5.36992
-5.48862
-5.31753
-5.44602
-5.57596
-5.70746
-5.53656
-5.68092
-5.82896
-5.98043
-5.7883
-5.95392
-6.12669
-6.30515
-6.06715
-6.25895
-6.46068
-6.67177
-6.36431
-6.58369
-6.81756
-7.06759
-6.66951
-6.91739
-7.1866
-7.48114
-6.96747
-7.2436
-7.54725
-7.88822
-7.2318
-7.52539
-7.85353
-8.2378
-7.44419
-7.72409
-8.01776
-8.33032
-7.64776
-7.91682
-8.176
-8.41659
-7.88978
-8.18643
-8.4801
-8.76353
-8.16636
-8.53435
-8.93478
-9.37227
-8.39685
-8.84335
-9.36706
-10.0218
-8.49056
-8.94583
-9.4705
-10.0964
-8.47424
-8.89309
-9.33681
-9.77699
-8.445
-8.86639
-9.29384
-9.62099
-8.44545
-8.93392
-9.45089
-9.84438
-8.43634
-9.05832
-9.74506
-10.3765
-8.27399
-9.0615
-10.0496
-11.2298
-7.67852
-8.52092
-9.64506
-11.2039
-6.51724
-7.15942
-7.99967
-9.16942
-5.04393
-5.36239
-5.73805
-6.16578
-3.62454
-3.69873
-3.7649
-3.80679
-2.43976
-2.38115
-2.30267
-2.19927
-1.51469
-1.39883
-1.27042
-1.13201
-0.833308
-0.696183
-0.556899
-0.424012
34.9506
34.7943
34.7717
34.7604
34.7602
34.771
34.7839
34.7909
34.7889
34.7778
34.7581
34.7319
34.7012
34.6689
34.6371
34.6082
34.5841
34.5664
34.5563
34.7202
34.8283
34.8314
34.7481
34.7364
34.7655
34.7934
34.8076
34.8084
34.7964
34.7729
34.7402
34.7018
34.6611
34.6212
34.5846
34.5537
34.5309
34.5177
780.705
678.16
75.9448
34.6679
34.6598
34.7523
34.8147
34.8329
34.8366
34.823
34.7933
34.751
34.7016
34.6497
34.5988
34.5517
34.5117
34.4817
34.4642
931.686
899.217
886.238
695.106
45.3411
34.6686
34.8748
34.8647
34.8761
34.8605
34.8212
34.7639
34.6993
34.6329
34.5676
34.5066
34.4541
34.4143
34.3909
1040.58
1031.38
1023.74
1015.75
1012.46
477.684
34.9869
34.9379
34.9249
34.9158
34.8594
34.7767
34.6919
34.6078
34.5244
34.445
34.3755
34.3223
34.291
1139.83
1139.06
1139.09
1142.65
1143.67
1146.79
1108.59
71.6873
34.85
35.0247
34.9087
34.7809
34.6735
34.5705
34.4648
34.3609
34.2683
34.1969
34.1547
-5.05283
93.6924
569.411
1258.86
1258.54
1262.78
1270.11
1269.37
578.176
35.499
34.9318
34.7541
34.6354
34.5175
34.3835
34.2456
34.1209
34.0246
33.9676
-5.32446
-5.57726
-5.6726
-5.64427
144.867
1192.72
1381.47
1385.32
1393.86
1110.04
35.6079
34.6623
34.5737
34.4469
34.2727
34.0854
33.9158
33.7858
33.7094
-5.26783
-5.48856
-5.68274
-5.8848
-6.04797
-6.14474
38.9825
1224.54
1499.72
1514.79
1245.14
37.105
34.5295
34.3609
34.1164
33.8565
33.6256
33.4521
33.3516
-5.19512
-5.41578
-5.62572
-5.82536
-6.01383
-6.1822
-6.31114
-6.39736
224.143
1619.3
1627.13
948.368
36.5554
34.2664
33.8766
33.5163
33.209
32.9842
32.8562
-5.1776
-5.39374
-5.60409
-5.80681
-5.9958
-6.16095
-6.29283
-6.38414
-6.4004
40.2457
1711.81
1720.71
228.115
34.587
33.4782
32.9948
32.6062
32.3305
32.1766
-5.19731
-5.41215
-5.62556
-5.82954
-6.0152
-6.17528
-6.30242
-6.39378
-6.46956
-6.6186
260.56
1799.53
1382.12
38.3356
32.8721
32.1887
31.7398
31.4302
31.2606
-5.24868
-5.46784
-5.68611
-5.89277
-6.0769
-6.23108
-6.34965
-6.43357
-6.49427
-6.54945
-6.53779
1456.25
1824
112.766
32.1332
30.9716
30.5241
30.223
30.0606
-5.33659
-5.56579
-5.7912
-6.00212
-6.18765
-6.33739
-6.44186
-6.50275
-6.53002
-6.53558
-6.53369
253.218
1886.68
643.399
31.5325
29.2147
28.8903
28.6701
28.5492
-5.46741
-5.71142
-5.94994
-6.17111
-6.36308
-6.50964
-6.59807
-6.62251
-6.59967
-6.57004
-6.54391
-6.81491
1870
1244.22
30.6187
26.8685
26.8366
26.7812
26.7379
-5.64747
-5.91514
-6.17824
-6.42142
-6.62844
-6.77921
-6.84684
-6.81613
-6.71838
-6.61416
-6.5534
-6.66672
1779.29
1299.83
28.1141
24.2203
24.4965
24.6322
24.6844
-5.88487
-6.19092
-6.49491
-6.77646
-7.01734
-7.18954
-7.2342
-7.11747
-6.90175
-6.68347
-6.50069
-6.35043
1629.29
1183.46
24.5626
21.5259
22.0355
22.3376
22.4802
-6.18566
-6.54962
-6.91778
-7.27641
-7.61163
-7.86514
-7.89237
-7.63539
-7.21851
-6.80039
-6.48594
-6.29292
1633.2
953.214
20.2639
18.8264
19.5566
20.0063
20.2307
-6.54928
-6.99983
-7.49032
-8.06181
-8.66831
-9.09979
-9.00248
-6.97685
-7.84532
-7.05486
-6.53407
-6.44683
1651.74
639.983
15.306
16.1641
17.1679
17.7454
18.0353
-6.96853
-7.54243
-8.24833
-9.10227
-9.99547
-10.7377
-10.6203
-7.59423
-7.8531
-7.59595
-6.65751
116.348
1677.58
144.877
12.7864
13.9646
15.0137
15.6505
15.9784
-7.42768
-8.15289
-9.05666
-9.94176
-10.7928
-9.91832
-12.2565
-9.09263
-7.80214
-8.35298
-7.23661
1431.23
1458.66
14.6932
11.456
12.1744
13.1414
13.7746
14.1117
-7.9143
-8.85594
-9.82451
-10.5087
-12.2213
-11.4548
-13.9145
-11.0071
-8.98799
-9.31974
155.826
1539.73
396.15
10.2664
9.49602
10.5991
11.5205
12.1262
12.4519
-8.40822
-9.74689
-10.3248
-10.7667
-4.20273
-14.6378
-15.2105
-14.391
-12.36
-9.81907
1430.29
1100.17
14.7011
8.66
8.16209
9.30808
10.1413
10.6981
10.9962
-8.89507
-9.57424
-10.1669
-11.2548
-2.36085
-15.2071
-15.2967
-14.4314
-12.9103
1222.06
1316.28
21.4082
6.25687
6.08752
7.27005
8.24369
8.97377
9.47069
9.73677
-8.80776
2.38218
-3.6002
-12.8333
-4.40845
-14.6796
-14.661
-14.4536
991.72
1253.86
46.2498
5.62099
4.50689
5.512
6.52417
7.35127
7.98236
8.41568
8.65046
-8.66839
-3.92535
-4.90315
-11.5309
7.91816
-14.0852
-14.5068
829.299
1161.66
88.2787
5.0305
3.25802
4.08574
5.04711
5.89044
6.59165
7.13249
7.50643
7.7109
-9.11479
-9.49556
-7.2415
-10.956
174.319
-14.6858
497.892
1052.18
84.9694
4.11195
2.32051
2.95676
3.82241
4.63377
5.34283
5.9358
6.39704
6.71753
6.89374
-9.92145
-10.0402
45.308
-11.4027
-11.4128
876.227
959.909
123.139
3.27893
1.68017
2.13039
2.85313
3.58945
4.26621
4.86208
5.36126
5.75271
6.02661
6.17797
-10.3156
198.019
206.581
-9.99118
-4.09324
926.701
476.26
2.94528
1.1347
1.50141
2.10615
2.74612
3.36414
3.93218
4.43162
4.85037
5.18254
5.41444
5.54341
-10.2348
221.094
29.3988
-5.92154
-9.63758
12.4535
-0.529859
-0.0847395
0.773728
1.4574
2.05711
2.62222
3.14661
3.62278
4.03948
4.39107
4.67027
4.86492
4.97358
-9.16858
-6.83929
0.121278
-3.11293
-5.6076
-6.2763
-2.469
-0.337365
0.75603
1.44348
1.9985
2.48942
2.93347
3.33131
3.67857
3.97148
4.20322
4.36562
4.45613
-8.93491
-8.88451
13.4698
-1.10218
-1.99057
-1.88667
-0.740875
0.237553
0.934831
1.47692
1.93821
2.35042
2.72111
3.0514
3.3404
3.58244
3.77286
3.90661
3.98116
-9.97215
-9.94126
1877.94
0.632284
-0.383399
-0.250787
0.217956
0.689169
1.11816
1.50831
1.86911
2.20198
2.50547
2.77785
3.01614
3.21555
3.37209
3.48052
3.54123
-10.6926
-10.4432
2021.68
906.685
-0.485357
0.544164
0.790451
0.993976
1.2402
1.50864
1.77967
2.04104
2.28623
2.50721
2.6998
2.86435
2.99343
3.08153
3.13068
-12.9955
55.9394
2067.72
2105.33
19.3407
1.29287
1.1443
1.15298
1.27964
1.46183
1.66299
1.86617
2.0618
2.23757
2.39097
2.5239
2.6304
2.70291
2.74179
-13.802
7.85136
2132.54
681.796
18.9886
1.55364
1.2281
1.17038
1.2395
1.36712
1.51766
1.67438
1.82771
1.96732
2.08806
2.19251
2.27774
2.33678
2.36724
-11.4141
-9.13189
4.4029
2.94146
0.652494
1.10134
1.07382
1.07441
1.13498
1.23208
1.34582
1.46489
1.5831
1.6924
1.78803
1.86825
1.93233
1.97831
2.00297
-6.8675
-7.54965
-5.21134
-1.27782
0.268183
0.754675
0.870384
0.926617
0.988581
1.06493
1.1514
1.24109
1.32907
1.41234
1.48634
1.54727
1.5935
1.62664
1.64572
-3.84176
-3.46437
-2.04253
-0.566376
0.241436
0.566962
0.695776
0.762201
0.815886
0.873632
0.937754
1.0037
1.06792
1.12702
1.18056
1.22567
1.25858
1.28087
1.29334
-2.02993
-1.53306
-0.811157
-0.15203
0.248405
0.445119
0.536338
0.58628
0.62489
0.663834
0.706955
0.753618
0.797825
0.836756
0.871369
0.901097
0.92362
0.938665
0.946624
-0.940619
-0.585627
-0.23144
0.0518622
0.228993
0.321894
0.368318
0.394101
0.414768
0.437943
0.463315
0.490247
0.517769
0.540967
0.559224
0.574623
0.587463
0.598143
0.605234
-0.276415
-0.11233
0.00545287
0.0886629
0.138088
0.163215
0.174534
0.181015
0.188235
0.196782
0.206027
0.216844
0.228246
0.237693
0.244195
0.24869
0.252965
0.258997
0.265021
1302.43
1305.49
1300.49
1290.8
1280.66
1270.77
1260.9
1250.9
1241.1
1232.2
1225.2
1221.33
1222.03
1228.99
1244.37
1270.51
1309.89
1362.62
1409
1416.22
1410.82
1321.46
1442.12
1301.52
1304.57
1299.56
1290.02
1280.02
1270.19
1260.29
1250.22
1240.34
1231.35
1224.25
1220.25
1220.79
1227.51
1242.23
1266.82
1302.86
1349.09
1395.6
1422.87
1423.69
1238.77
1403.07
1299.43
1302.42
1297.41
1288.22
1278.53
1268.82
1258.85
1248.63
1238.57
1229.37
1222.02
1217.73
1217.91
1224.13
1238.08
1261.23
1294.23
1334.52
1373.39
1404.59
1403.22
1208.1
1381.53
1296.21
1299.11
1294.15
1285.47
1276.23
1266.64
1256.56
1246.11
1235.76
1226.24
1218.51
1213.76
1213.37
1218.87
1231.75
1253.19
1283.23
1319.11
1353.71
1377.58
1371.25
1274.3
1452.96
1291.95
1294.74
1289.91
1281.86
1273.12
1263.65
1253.4
1242.64
1231.91
1221.94
1213.68
1208.31
1207.16
1211.69
1223.28
1242.83
1270.05
1302.2
1333.33
1355.59
1362.44
1375.46
1533.37
1286.77
1289.44
1284.82
1277.48
1269.23
1259.84
1249.35
1238.21
1226.99
1216.45
1207.52
1201.34
1199.23
1202.58
1212.68
1230.24
1254.8
1283.8
1312.25
1334.56
1351.11
1397.14
1540.97
1280.83
1283.37
1279.02
1272.4
1264.57
1255.16
1244.38
1232.78
1220.99
1209.76
1200
1192.83
1189.54
1191.49
1199.9
1215.38
1237.45
1263.73
1290
1312.04
1332.26
1375.74
1472.99
1274.32
1276.68
1272.64
1266.66
1259.14
1249.62
1238.47
1226.34
1213.88
1201.82
1191.06
1182.69
1178
1178.32
1184.84
1198.18
1217.87
1241.76
1266.04
1286.75
1303.88
1324.77
1320.51
34.7677
34.7728
34.7753
34.7754
34.7749
34.7739
34.7712
34.7658
34.7568
34.744
34.7279
34.7094
34.6898
34.6702
34.652
34.6363
34.6241
34.616
34.6124
34.767
34.7728
34.7753
34.7753
34.7748
34.7739
34.7715
34.7662
34.7572
34.7444
34.7281
34.7095
34.6897
34.6699
34.6515
34.6357
34.6234
34.6152
34.6116
34.7652
34.7728
34.7753
34.7749
34.7746
34.7742
34.7722
34.7672
34.7583
34.7454
34.7289
34.7098
34.6894
34.6692
34.6503
34.6341
34.6214
34.6129
34.6093
34.762
34.7728
34.7752
34.7744
34.7742
34.7745
34.7732
34.7688
34.7602
34.7471
34.7301
34.7103
34.6891
34.668
34.6483
34.6313
34.618
34.6092
34.6053
34.7561
34.773
34.7751
34.7734
34.7737
34.7749
34.7747
34.7711
34.7628
34.7495
34.7319
34.711
34.6886
34.6662
34.6454
34.6274
34.6132
34.6038
34.5997
34.7452
34.773
34.775
34.772
34.7727
34.7754
34.7768
34.7742
34.7662
34.7526
34.7341
34.712
34.688
34.664
34.6416
34.6222
34.607
34.5968
34.5922
34.7227
34.7734
34.7751
34.7697
34.7713
34.7761
34.7795
34.7782
34.7706
34.7566
34.7369
34.7132
34.6874
34.6613
34.6368
34.6157
34.5991
34.5879
34.5831
34.7302
34.7738
34.7744
34.7659
34.769
34.7767
34.7829
34.7831
34.776
34.7614
34.7404
34.7147
34.6865
34.658
34.6311
34.6078
34.5894
34.5771
34.5716
1265.41
1267.24
1263.72
1258.48
1251.14
1241.35
1229.64
1216.73
1203.27
1189.97
1177.69
1167.5
1160.68
1158.56
1162.35
1172.75
1189.47
1210.6
1232.46
1250.07
1256.66
1226.97
913.231
1249.26
1250.28
1247.25
1242.47
1234.85
1224.22
1211.3
1196.78
1181.2
1165.2
1149.59
1135.38
1123.87
1116.49
1114.68
1119.58
1131.23
1148.64
1167.99
1181.32
1173.83
1116.99
976.601
1232.06
1231.78
1228.79
1223.73
1215.16
1203.24
1188.71
1172.07
1153.6
1133.86
1113.52
1093.43
1075.24
1060.36
1050.66
1047.86
1054.66
1070.95
1092.28
1111.64
1112.15
1079.37
999.018
1214.03
1211.62
1208.2
1202.3
1192.2
1178.34
1161.71
1142.59
1120.64
1097.55
1073.88
1049.28
1026.5
1004.88
973.934
922.026
899.943
946.744
1007.16
1048.11
1060.92
1054.96
1026.88
1192.72
1191.22
1186.89
1179.41
1167.99
1151.9
1134.09
1114.55
1087.04
994.803
777.666
417.828
136.98
-2.30325
-2.39365
-2.62331
-2.48735
-2.28366
0.590819
125.599
565.519
1048.01
1058.29
1131.42
1056.77
1033.17
934.206
791.853
553.441
300.1
97.8003
-1.89923
-2.53015
-2.73105
-2.70145
-2.88412
-2.90807
-2.87893
-2.99244
-3.13456
-3.03406
-2.76163
-2.43545
-1.84389
-3.23722
43.2785
-2.02743
-2.46161
-2.47435
-2.48484
-2.44188
-2.3267
-2.37072
-2.40855
-2.39878
-2.57035
-2.83052
-2.96108
-3.08306
-3.12979
-3.11264
-3.10049
-3.1848
-1.30542
-1.26753
-2.43118
-3.00108
-4.04848
-4.38834
-2.50409
-2.49656
-2.50841
-2.50838
-2.48888
-2.45904
-2.45729
-2.46557
-2.49953
-2.10853
-2.80485
-3.26252
-3.40138
-3.47896
-3.46994
-3.42623
-3.50328
-2.67147
-3.67815
-3.78296
-3.95481
-4.16543
-4.44478
-2.59064
-2.56958
-2.56914
-2.57043
-2.56913
-2.56919
-2.57753
-2.58792
-1.43965
-2.07778
-3.26024
-3.42521
-3.62066
-3.69019
-3.33767
-3.73976
-3.74342
-3.74231
-3.77819
-3.89337
-4.06162
-4.27076
-4.5257
-2.64622
-2.63695
-2.63835
-2.6461
-2.65915
-2.67983
-2.71239
-2.70491
-1.57182
-3.16471
-3.31696
-3.52066
-3.17578
-3.24357
-3.40083
-3.24405
-3.84945
-3.73388
-3.79915
-3.95795
-4.13157
-4.33579
-4.57029
-2.6996
-2.70154
-2.70883
-2.72387
-2.7477
-2.7834
-2.83641
-2.91647
-1.60223
-3.18293
-3.34746
-3.51304
-3.72649
-3.66846
-3.92893
-3.83403
-3.50315
-3.57431
-3.83685
-3.99679
-4.17938
-4.38386
-4.60549
-2.75447
-2.76325
-2.77632
-2.79752
-2.82871
-2.87271
-2.93377
-3.01918
-3.13871
-3.0118
-3.36038
-3.47138
-3.59023
-3.68514
-3.71418
-3.68048
-3.6949
-3.74998
-3.87704
-4.04229
-4.22987
-4.43445
-4.64857
-2.81056
-2.82239
-2.8394
-2.86488
-2.90025
-2.94758
-3.00935
-3.08765
-3.18375
-3.2822
-3.36776
-3.45496
-3.5359
-3.60147
-3.64188
-3.66782
-3.71414
-3.80548
-3.94006
-4.10607
-4.29494
-4.4982
-4.7084
-2.86557
-2.8783
-2.89753
-2.92536
-2.96278
-3.01093
-3.07067
-3.14223
-3.22357
-3.30792
-3.38739
-3.46213
-3.53069
-3.59005
-3.64265
-3.69924
-3.77594
-3.88342
-4.02264
-4.18975
-4.37862
-4.58106
-4.79194
-2.91735
-2.92991
-2.95024
-2.97917
-3.01732
-3.0651
-3.12266
-3.18942
-3.26314
-3.33965
-3.41443
-3.48616
-3.55413
-3.61977
-3.68741
-3.76467
-3.85996
-3.97882
-4.12313
-4.29222
-4.4823
-4.68754
-4.90401
-2.96412
-2.97645
-2.99705
-3.02643
-3.0647
-3.11188
-3.16777
-3.23147
-3.30112
-3.37403
-3.44763
-3.52101
-3.59464
-3.67061
-3.75293
-3.84686
-3.95724
-4.08704
-4.23806
-4.41165
-4.607
-4.82022
-5.04698
-3.00514
-3.01721
-3.03795
-3.0674
-3.10555
-3.1523
-3.20721
-3.2694
-3.33751
-3.40989
-3.48528
-3.56343
-3.64516
-3.73248
-3.82871
-3.93774
-4.06245
-4.2041
-4.36443
-4.54681
-4.75276
-4.97919
-5.22245
-3.03999
-3.05191
-3.07263
-3.10212
-3.14025
-3.18688
-3.2416
-3.30371
-3.37226
-3.4464
-3.5257
-3.61034
-3.70108
-3.79964
-3.90906
-4.0326
-4.17192
-4.32725
-4.50053
-4.69644
-4.91801
-5.16336
-5.43045
-3.06833
-3.08014
-3.10088
-3.1305
-3.16888
-3.2159
-3.27126
-3.33443
-3.40489
-3.48237
-3.56695
-3.65886
-3.75868
-3.86818
-3.9905
-4.12862
-4.28356
-4.4551
-4.64483
-4.85812
-5.09979
-5.36945
-5.66766
-3.08988
-3.10162
-3.12247
-3.15241
-3.19136
-3.23922
-3.29583
-3.36096
-3.43445
-3.51638
-3.6069
-3.70617
-3.815
-3.93562
-4.07116
-4.22423
-4.39586
-4.58545
-4.79404
-5.02779
-5.29324
-5.5921
-5.92865
-3.10404
-3.11589
-3.13706
-3.16756
-3.20734
-3.25644
-3.3149
-3.38277
-3.46008
-3.54693
-3.64339
-3.74994
-3.86816
-4.00049
-4.14945
-4.31736
-4.50572
-4.71424
-4.94386
-5.2008
-5.49337
-5.82627
-6.2064
-3.11072
-3.12279
-3.14441
-3.17563
-3.21651
-3.26728
-3.32815
-3.39926
-3.48059
-3.57214
-3.6743
-3.78843
-3.91664
-4.06084
-4.22261
-4.40447
-4.60941
-4.83825
-5.09109
-5.37367
-5.69581
-6.06525
-6.49149
-3.10985
-3.12214
-3.1442
-3.1762
-3.21838
-3.27111
-3.33468
-3.40909
-3.49416
-3.5901
-3.69809
-3.82025
-3.95854
-4.11384
-4.28731
-4.48281
-4.70513
-4.95522
-5.23267
-5.54242
-5.89422
-6.29916
-6.76977
-3.10088
-3.11336
-3.13589
-3.16875
-3.21234
-3.26715
-3.33339
-3.41084
-3.49934
-3.59963
-3.71371
-3.84391
-3.99148
-4.15674
-4.34162
-4.55141
-4.79092
-5.06147
-5.36371
-5.70082
-6.0815
-6.51716
-7.02149
-3.08332
-3.09605
-3.11915
-3.15297
-3.19803
-3.25485
-3.32349
-3.40356
-3.49513
-3.5997
-3.71974
-3.85722
-4.01292
-4.18761
-4.38436
-4.60814
-4.8633
-5.15296
-5.47876
-5.84371
-6.25319
-6.71487
-7.23572
-3.05701
-3.07002
-3.09368
-3.1284
-3.17479
-3.23331
-3.30383
-3.38594
-3.48018
-3.58872
-3.71406
-3.85773
-4.02071
-4.2048
-4.41301
-4.6495
-4.91918
-5.22606
-5.57442
-5.96761
-6.40711
-6.89851
-7.43919
-3.02135
-3.03453
-3.05858
-3.09397
-3.14135
-3.20112
-3.27298
-3.35661
-3.45313
-3.56515
-3.69487
-3.84366
-4.01333
-4.20611
-4.42442
-4.6725
-4.95518
-5.27805
-5.64804
-6.06793
-6.5416
-7.0732
-7.66156
-2.97558
-2.98882
-3.01309
-3.0489
-3.09699
-3.15762
-3.23037
-3.31511
-3.41349
-3.52826
-3.66128
-3.81415
-3.98944
-4.18935
-4.41612
-4.67392
-4.96825
-5.3062
-5.69469
-6.14075
-6.64962
-7.23041
-7.89451
-2.91985
-2.93312
-2.9575
-2.99359
-3.04209
-3.1032
-3.17638
-3.26172
-3.36127
-3.47775
-3.61279
-3.76836
-3.94757
-4.1526
-4.38547
-4.65091
-4.95539
-5.30533
-5.7103
-6.17888
-6.7192
-7.34545
-8.08123
-2.85495
-2.86818
-2.89254
-2.92863
-2.97717
-3.03822
-3.1112
-3.1964
-3.29611
-3.41297
-3.54852
-3.70504
-3.88603
-4.0936
-4.32989
-4.6005
-4.91161
-5.27078
-5.68864
-6.17431
-6.73873
-7.3948
-8.1658
-2.78119
-2.79427
-2.81836
-2.85407
-2.90208
-2.9624
-3.03444
-3.11858
-3.21721
-3.33297
-3.46735
-3.62284
-3.80307
-4.0102
-4.24684
-4.51863
-4.83236
-5.19687
-5.62276
-6.12082
-6.70282
-7.38096
-8.16131
-2.69831
-2.71111
-2.73465
-2.76952
-2.81642
-2.87532
-2.9456
-3.02767
-3.12395
-3.23707
-3.36856
-3.52083
-3.69739
-3.90067
-4.13366
-4.40197
-4.71332
-5.07768
-5.50675
-6.01313
-6.61266
-7.31748
-8.12644
-2.60603
-2.61843
-2.64111
-2.67473
-2.71994
-2.77673
-2.84446
-2.92348
-3.01613
-3.12509
-3.25187
-3.3985
-3.56815
-3.76362
-3.98836
-4.2482
-4.55123
-4.90877
-5.33416
-5.84401
-6.45978
-7.20359
-8.08699
-2.50446
-2.5163
-2.53787
-2.56981
-2.61279
-2.66681
-2.73124
-2.80628
-2.89409
-2.99734
-3.11742
-3.25575
-3.41511
-3.59878
-3.81072
-4.05678
-4.34497
-4.68676
-5.09768
-5.59838
-6.22072
-7.00536
-7.99988
-2.39393
-2.40506
-2.42528
-2.45518
-2.49542
-2.54605
-2.60647
-2.67668
-2.75851
-2.85444
-2.96567
-3.09309
-3.23918
-3.40766
-3.6027
-3.8292
-4.09433
-4.40909
-4.78956
-5.26128
-5.86209
-6.65564
-7.74271
-2.27485
-2.28519
-2.30383
-2.33135
-2.36839
-2.41509
-2.47087
-2.53545
-2.61019
-2.6972
-2.79753
-2.9119
-3.04266
-3.19333
-3.36722
-3.56781
-3.80081
-4.07621
-4.4094
-4.82424
-5.35943
-6.08378
-7.13439
-2.14779
-2.15729
-2.17417
-2.19902
-2.23249