/*--------------------------------*- C++ -*----------------------------------*\
| =========                 |                                                 |
| \\      /  F ield         | OpenFOAM: The Open Source CFD Toolbox           |
|  \\    /   O peration     | Version:  v1912                                 |
|   \\  /    A nd           | Website:  www.openfoam.com                      |
|    \\/     M anipulation  |                                                 |
\*---------------------------------------------------------------------------*/
FoamFile
{
    version     2.0;
    format      ascii;
    class       surfaceScalarField;
    location    "0.3";
    object      phi;
}
// * * * * * * * * * * * * * * * * * * * * * * * * * * * * * * * * * * * * * //

dimensions      [0 3 -1 0 0 0 0];
oriented        oriented;


internalField   nonuniform List<scalar> 
17936
(
-4.34672e-07
8.68873e-07
-4.342e-07
-3.6365e-07
1.9275e-06
-1.56385e-06
-3.76223e-06
5.51807e-06
-1.75584e-06
-7.04133e-06
8.31552e-06
-1.27419e-06
-9.39374e-06
1.03492e-05
-9.5549e-07
-1.12472e-05
1.2133e-05
-8.85747e-07
-1.30307e-05
1.39483e-05
-9.17539e-07
-1.48829e-05
1.58264e-05
-9.43554e-07
-1.6769e-05
1.77006e-05
-9.3167e-07
-1.86124e-05
1.94964e-05
-8.83962e-07
-2.03453e-05
2.11519e-05
-8.06652e-07
-2.19095e-05
2.26104e-05
-7.00865e-07
-2.32462e-05
2.38074e-05
-5.61234e-07
-2.42832e-05
2.46614e-05
-3.78189e-07
-2.49246e-05
2.5047e-05
-1.22395e-07
-2.49687e-05
2.4587e-05
3.81624e-07
-2.3805e-05
2.24877e-05
1.31727e-06
-2.04342e-05
1.73739e-05
3.06035e-06
-1.30508e-05
7.5123e-06
5.53847e-06
-1.39216e-06
-3.33676e-06
4.72892e-06
3.86793e-06
-6.6403e-07
-3.2039e-06
4.34842e-06
-1.46553e-05
1.03069e-05
1.95207e-05
-1.24993e-05
-7.02138e-06
-1.28809e-06
1.69106e-06
-4.02971e-07
-4.1239e-07
2.00322e-06
3.15193e-06
-4.74276e-06
-3.84548e-06
5.60374e-06
3.53046e-06
-5.28872e-06
-7.13152e-06
8.41646e-06
2.57323e-06
-3.85817e-06
-9.5134e-06
1.04948e-05
1.93856e-06
-2.91992e-06
-1.14231e-05
1.23407e-05
1.7975e-06
-2.71513e-06
-1.32698e-05
1.42171e-05
1.85872e-06
-2.80597e-06
-1.51795e-05
1.61493e-05
1.90979e-06
-2.87959e-06
-1.7117e-05
1.80732e-05
1.88636e-06
-2.84264e-06
-1.90097e-05
1.99188e-05
1.79206e-06
-2.70114e-06
-2.07936e-05
2.16274e-05
1.63913e-06
-2.47296e-06
-2.24137e-05
2.3145e-05
1.42991e-06
-2.16123e-06
-2.38134e-05
2.44098e-05
1.15406e-06
-1.75051e-06
-2.49241e-05
2.53451e-05
7.92829e-07
-1.21376e-06
-2.56599e-05
2.58531e-05
3.12233e-07
-5.05406e-07
-2.59086e-05
2.58073e-05
-3.56646e-07
4.57959e-07
-2.55417e-05
2.51204e-05
-1.45871e-06
1.87997e-06
-2.459e-05
2.40569e-05
-3.78924e-06
4.32239e-06
-2.36114e-05
2.3007e-05
-8.71113e-06
9.31553e-06
-2.12943e-05
1.68683e-05
-1.17963e-05
1.62222e-05
-8.63735e-06
-1.28276e-06
-2.58132e-06
1.25014e-05
8.93109e-06
-1.31019e-05
-1.7199e-05
2.13697e-05
1.40311e-05
-9.40804e-06
1.43864e-05
-1.90094e-05
-2.07366e-06
2.43064e-06
-3.56977e-07
-4.7475e-07
2.07572e-06
6.33837e-06
-7.93934e-06
-3.89405e-06
5.60325e-06
7.02565e-06
-8.73485e-06
-7.0774e-06
8.32139e-06
5.12492e-06
-6.3689e-06
-9.39854e-06
1.03811e-05
3.90139e-06
-4.88396e-06
-1.1326e-05
1.22684e-05
3.64344e-06
-4.5858e-06
-1.32242e-05
1.4196e-05
3.76403e-06
-4.73587e-06
-1.51791e-05
1.61651e-05
3.85654e-06
-4.84261e-06
-1.71454e-05
1.81119e-05
3.80329e-06
-4.76972e-06
-1.90571e-05
1.99746e-05
3.61374e-06
-4.53123e-06
-2.08582e-05
2.17017e-05
3.31079e-06
-4.1543e-06
-2.24989e-05
2.32427e-05
2.89772e-06
-3.64146e-06
-2.39251e-05
2.45377e-05
2.35373e-06
-2.96629e-06
-2.50706e-05
2.55131e-05
1.64399e-06
-2.08654e-06
-2.58532e-05
2.60777e-05
7.12222e-07
-9.36669e-07
-2.61721e-05
2.61198e-05
-5.40239e-07
5.92534e-07
-2.59059e-05
2.55171e-05
-2.32819e-06
2.71706e-06
-2.49459e-05
2.42005e-05
-5.10184e-06
5.84721e-06
-2.33372e-05
2.25443e-05
-9.7311e-06
1.0524e-05
-2.21846e-05
2.20162e-05
-1.76248e-05
1.77932e-05
-2.0303e-05
1.48447e-05
-2.20833e-05
2.75417e-05
-8.82568e-06
5.54492e-06
-2.42009e-05
2.74817e-05
-3.29494e-06
1.21185e-06
1.99198e-05
-1.78367e-05
-2.7564e-06
3.04541e-06
-2.89012e-07
-5.69288e-07
2.17768e-06
9.54502e-06
-1.11534e-05
-3.95539e-06
5.5908e-06
1.041e-05
-1.20454e-05
-6.98871e-06
8.17879e-06
7.58687e-06
-8.77695e-06
-9.2344e-06
1.0225e-05
5.86939e-06
-6.85996e-06
-1.11979e-05
1.21778e-05
5.54545e-06
-6.52527e-06
-1.3172e-05
1.41782e-05
5.72401e-06
-6.73024e-06
-1.51895e-05
1.61979e-05
5.83936e-06
-6.84774e-06
-1.71959e-05
1.8177e-05
5.74309e-06
-6.7242e-06
-1.91356e-05
2.00664e-05
5.45491e-06
-6.38579e-06
-2.09644e-05
2.18239e-05
5.00512e-06
-5.86462e-06
-2.26392e-05
2.34033e-05
4.39451e-06
-5.15866e-06
-2.41089e-05
2.47476e-05
3.59077e-06
-4.22944e-06
-2.53101e-05
2.57866e-05
2.54465e-06
-3.02115e-06
-2.61661e-05
2.64371e-05
1.18263e-06
-1.45364e-06
-2.65876e-05
2.66055e-05
-6.11617e-07
5.93672e-07
-2.64809e-05
2.62075e-05
-3.04797e-06
3.32135e-06
-2.57866e-05
2.52306e-05
-6.49113e-06
7.04718e-06
-2.45636e-05
2.38068e-05
-1.1387e-05
1.21439e-05
-2.29974e-05
2.23991e-05
-1.80599e-05
1.86582e-05
-2.25371e-05
2.32433e-05
-2.89274e-05
2.82212e-05
-2.34423e-05
2.18825e-05
-3.03704e-05
3.19302e-05
-1.75185e-05
9.46411e-06
1.24016e-05
-4.34718e-06
-3.29205e-06
3.49039e-06
-1.98343e-07
-6.92709e-07
2.29771e-06
1.27617e-05
-1.43667e-05
-4.01497e-06
5.55645e-06
1.3636e-05
-1.51775e-05
-6.86523e-06
7.99862e-06
9.93846e-06
-1.10718e-05
-9.03812e-06
1.00464e-05
7.85814e-06
-8.86639e-06
-1.10576e-05
1.20835e-05
7.52742e-06
-8.55332e-06
-1.31224e-05
1.41671e-05
7.75555e-06
-8.80017e-06
-1.52092e-05
1.62417e-05
7.86818e-06
-8.9007e-06
-1.72591e-05
1.82572e-05
7.71359e-06
-8.71168e-06
-1.92321e-05
2.01801e-05
7.32477e-06
-8.27275e-06
-2.10969e-05
2.19775e-05
6.73405e-06
-7.61467e-06
-2.28166e-05
2.36077e-05
5.93549e-06
-6.72653e-06
-2.43435e-05
2.50162e-05
4.88422e-06
-5.55691e-06
-2.5617e-05
2.6137e-05
3.51836e-06
-4.03832e-06
-2.65662e-05
2.68946e-05
1.75229e-06
-2.08072e-06
-2.71124e-05
2.72106e-05
-5.36293e-07
4.38107e-07
-2.71824e-05
2.70246e-05
-3.53653e-06
3.69436e-06
-2.67396e-05
2.63376e-05
-7.52403e-06
7.92603e-06
-2.58377e-05
2.52702e-05
-1.27927e-05
1.33602e-05
-2.4666e-05
2.40321e-05
-1.93555e-05
1.99895e-05
-2.35179e-05
2.38159e-05
-2.72921e-05
2.69941e-05
-2.52695e-05
2.5648e-05
-3.20825e-05
3.1704e-05
-2.20071e-05
1.273e-05
-4.90723e-06
1.41843e-05
-3.63444e-06
3.71873e-06
-8.42938e-08
-8.38571e-07
2.42699e-06
1.59652e-05
-1.75536e-05
-4.06504e-06
5.49945e-06
1.66667e-05
-1.81011e-05
-6.71673e-06
7.80014e-06
1.21789e-05
-1.32623e-05
-8.83433e-06
9.87048e-06
9.88739e-06
-1.09235e-05
-1.09271e-05
1.20023e-05
9.60386e-06
-1.06791e-05
-1.30863e-05
1.41682e-05
9.86386e-06
-1.09458e-05
-1.52398e-05
1.62959e-05
9.94522e-06
-1.10013e-05
-1.73334e-05
1.83504e-05
9.71899e-06
-1.07359e-05
-1.93447e-05
2.03138e-05
9.23078e-06
-1.01998e-05
-2.12541e-05
2.21611e-05
8.50788e-06
-9.41494e-06
-2.30299e-05
2.38541e-05
7.53343e-06
-8.35766e-06
-2.4627e-05
2.5341e-05
6.24939e-06
-6.96336e-06
-2.59879e-05
2.65593e-05
4.58311e-06
-5.15458e-06
-2.70464e-05
2.74402e-05
2.44095e-06
-2.83475e-06
-2.77323e-05
2.79156e-05
-2.97918e-07
1.14677e-07
-2.79849e-05
2.79382e-05
-3.79614e-06
3.84278e-06
-2.7778e-05
2.75117e-05
-8.25807e-06
8.52435e-06
-2.71524e-05
2.67169e-05
-1.3859e-05
1.42945e-05
-2.6226e-05
2.57032e-05
-2.05489e-05
2.10716e-05
-2.51116e-05
2.44247e-05
-2.73293e-05
2.80162e-05
-2.39146e-05
2.30055e-05
-3.17441e-05
3.26532e-05
-1.97189e-05
1.1964e-05
-2.27492e-05
3.0504e-05
-3.73984e-06
3.69848e-06
4.13514e-08
-1.00224e-06
2.56035e-06
1.91285e-05
-2.06866e-05
-4.10352e-06
5.42569e-06
1.94795e-05
-2.08017e-05
-6.55849e-06
7.60558e-06
1.43256e-05
-1.53727e-05
-8.64786e-06
9.72057e-06
1.19771e-05
-1.30498e-05
-1.08253e-05
1.1948e-05
1.17787e-05
-1.29014e-05
-1.30727e-05
1.41872e-05
1.20447e-05
-1.31592e-05
-1.52848e-05
1.63628e-05
1.20686e-05
-1.31466e-05
-1.74207e-05
1.84586e-05
1.17631e-05
-1.28009e-05
-1.94756e-05
2.047e-05
1.1181e-05
-1.21754e-05
-2.14387e-05
2.23775e-05
1.03372e-05
-1.1276e-05
-2.32817e-05
2.41452e-05
9.20076e-06
-1.00643e-05
-2.49615e-05
2.57236e-05
7.70054e-06
-8.46262e-06
-2.64237e-05
2.70539e-05
5.75454e-06
-6.38479e-06
-2.7606e-05
2.80716e-05
3.26371e-06
-3.72937e-06
-2.84434e-05
2.87148e-05
1.12358e-07
-3.83777e-07
-2.88816e-05
2.89424e-05
-3.83519e-06
3.77446e-06
-2.88985e-05
2.87551e-05
-8.72795e-06
8.87142e-06
-2.85194e-05
2.81997e-05
-1.46708e-05
1.49905e-05
-2.77995e-05
2.73112e-05
-2.15786e-05
2.20669e-05
-2.67064e-05
2.58379e-05
-2.88419e-05
2.97104e-05
-2.44524e-05
2.2194e-05
-3.43879e-05
3.66463e-05
-1.83272e-05
1.14739e-05
-3.7692e-05
4.45453e-05
-3.59218e-06
3.42117e-06
1.71009e-07
-1.18077e-06
2.69547e-06
2.22248e-05
-2.37395e-05
-4.13118e-06
5.34279e-06
2.20678e-05
-2.32795e-05
-6.40517e-06
7.4332e-06
1.64079e-05
-1.7436e-05
-8.49624e-06
9.61038e-06
1.41429e-05
-1.5257e-05
-1.07609e-05
1.19245e-05
1.40457e-05
-1.52093e-05
-1.30821e-05
1.42224e-05
1.42875e-05
-1.54279e-05
-1.53417e-05
1.644e-05
1.42349e-05
-1.53332e-05
-1.7519e-05
1.85801e-05
1.38501e-05
-1.49112e-05
-1.96233e-05
2.06472e-05
1.3184e-05
-1.42079e-05
-2.16489e-05
2.26243e-05
1.22326e-05
-1.3208e-05
-2.35691e-05
2.44774e-05
1.09496e-05
-1.18579e-05
-2.53432e-05
2.61597e-05
9.25121e-06
-1.00677e-05
-2.69197e-05
2.76156e-05
7.04704e-06
-7.74295e-06
-2.82394e-05
2.87833e-05
4.23327e-06
-4.77718e-06
-2.92399e-05
2.96028e-05
7.00233e-07
-1.06312e-06
-2.98673e-05
3.00321e-05
-3.66153e-06
3.4967e-06
-3.00976e-05
3.00672e-05
-8.9572e-06
8.98755e-06
-2.99461e-05
2.97375e-05
-1.52545e-05
1.54631e-05
-2.94385e-05
2.90294e-05
-2.25231e-05
2.29322e-05
-2.84619e-05
2.76349e-05
-3.05782e-05
3.14052e-05
-2.62931e-05
2.39862e-05
-3.90812e-05
4.13881e-05
-2.0053e-05
1.39921e-05
-5.12217e-05
5.72826e-05
1.86784e-07
-3.50115e-07
1.63331e-07
-5.90735e-07
1.16854e-06
-5.77803e-07
-1.83564e-06
2.47638e-06
-6.40743e-07
-3.02785e-06
3.48883e-06
-4.60975e-07
-3.88475e-06
4.24197e-06
-3.57221e-07
-4.57851e-06
4.90245e-06
-3.23938e-07
-5.21462e-06
5.51221e-06
-2.97596e-07
-5.7918e-06
6.04851e-06
-2.56718e-07
-6.27713e-06
6.47257e-06
-1.95443e-07
-6.62994e-06
6.74436e-06
-1.14428e-07
-6.80967e-06
6.81971e-06
-1.00422e-08
-6.77195e-06
6.6696e-06
1.02348e-07
-6.51452e-06
6.30761e-06
2.06906e-07
-6.04953e-06
5.74178e-06
3.07747e-07
-5.38607e-06
4.98516e-06
4.00906e-07
-4.5417e-06
4.05969e-06
4.82012e-07
-3.54276e-06
2.99536e-06
5.47407e-07
-2.42247e-06
1.82872e-06
5.93754e-07
-1.21959e-06
6.0387e-07
6.15722e-07
5.02084e-07
-6.05081e-07
1.02997e-07
-6.25762e-07
1.39218e-06
1.30541e-06
-2.07183e-06
-2.30392e-06
3.17994e-06
1.47399e-06
-2.35e-06
-3.93809e-06
4.58252e-06
1.09567e-06
-1.7401e-06
-5.14682e-06
5.66132e-06
8.62641e-07
-1.37715e-06
-6.14576e-06
6.61018e-06
7.73e-07
-1.23742e-06
-7.05684e-06
7.48419e-06
7.07537e-07
-1.13489e-06
-7.88751e-06
8.26059e-06
6.13365e-07
-9.8645e-07
-8.59688e-06
8.88934e-06
4.71876e-07
-7.64343e-07
-9.13188e-06
9.31848e-06
2.8635e-07
-4.72947e-07
-9.44408e-06
9.50552e-06
6.33395e-08
-1.24783e-07
-9.4993e-06
9.42113e-06
-1.83647e-07
2.61821e-07
-9.26698e-06
9.03457e-06
-4.38409e-07
6.70819e-07
-8.72301e-06
8.33229e-06
-6.91142e-07
1.08186e-06
-7.86389e-06
7.32015e-06
-9.29115e-07
1.47286e-06
-6.70454e-06
6.02178e-06
-1.14015e-06
1.82291e-06
-5.27756e-06
4.47878e-06
-1.31268e-06
2.11146e-06
-3.63321e-06
2.74917e-06
-1.43705e-06
2.32109e-06
-1.83603e-06
9.02518e-07
-1.50427e-06
2.43779e-06
6.12016e-07
-4.60489e-07
-1.51527e-07
-3.54457e-07
1.18872e-06
2.86676e-06
-3.70102e-06
-2.2818e-06
3.27228e-06
3.27035e-06
-4.26083e-06
-4.05489e-06
4.67771e-06
2.37604e-06
-2.99886e-06
-5.21203e-06
5.70536e-06
1.88346e-06
-2.3768e-06
-6.18068e-06
6.64477e-06
1.7025e-06
-2.16659e-06
-7.09642e-06
7.53106e-06
1.5661e-06
-2.00074e-06
-7.94232e-06
8.32336e-06
1.36333e-06
-1.74437e-06
-8.6677e-06
8.96838e-06
1.06083e-06
-1.36152e-06
-9.21868e-06
9.41256e-06
6.63556e-07
-8.57442e-07
-9.54456e-06
9.6096e-06
1.87992e-07
-2.53029e-07
-9.60317e-06
9.52217e-06
-3.42427e-07
4.23424e-07
-9.36382e-06
9.12618e-06
-9.06649e-07
1.14429e-06
-8.80877e-06
8.41157e-06
-1.47626e-06
1.87346e-06
-7.93614e-06
7.3851e-06
-2.02045e-06
2.57149e-06
-6.76197e-06
6.07169e-06
-2.50958e-06
3.19986e-06
-5.31993e-06
4.51363e-06
-2.91444e-06
3.72074e-06
-3.66074e-06
2.76965e-06
-3.20919e-06
4.10028e-06
-1.84975e-06
9.10235e-07
-3.37481e-06
4.31433e-06
4.90741e-08
7.32242e-07
-7.81316e-07
3.36481e-07
6.76306e-07
4.58307e-06
-5.59586e-06
-2.20282e-06
3.43499e-06
5.35926e-06
-6.59143e-06
-4.25688e-06
4.82602e-06
3.59999e-06
-4.16914e-06
-5.29587e-06
5.74665e-06
2.85176e-06
-3.30254e-06
-6.20405e-06
6.66651e-06
2.62947e-06
-3.09192e-06
-7.12478e-06
7.56949e-06
2.43964e-06
-2.88436e-06
-7.99253e-06
8.38609e-06
2.131e-06
-2.52457e-06
-8.74276e-06
9.05513e-06
1.66747e-06
-1.97984e-06
-9.31651e-06
9.52051e-06
1.0558e-06
-1.2598e-06
-9.66121e-06
9.7333e-06
3.21033e-07
-3.93126e-07
-9.73252e-06
9.6555e-06
-5.02966e-07
5.79988e-07
-9.49925e-06
9.2621e-06
-1.38206e-06
1.61921e-06
-8.94309e-06
8.54236e-06
-2.27252e-06
2.67325e-06
-8.06138e-06
7.5029e-06
-3.12608e-06
3.68456e-06
-6.87065e-06
6.16982e-06
-3.89491e-06
4.59574e-06
-5.40621e-06
4.58712e-06
-4.53252e-06
5.3516e-06
-3.72063e-06
2.81533e-06
-4.99728e-06
5.90258e-06
-1.8808e-06
9.26656e-07
-5.25992e-06
6.21406e-06
-1.91054e-06
3.39783e-06
-1.4873e-06
1.15998e-06
5.25531e-07
6.89808e-06
-8.58359e-06
-2.4616e-06
3.75348e-06
7.90934e-06
-9.20122e-06
-4.50681e-06
4.98962e-06
4.69816e-06
-5.18098e-06
-5.38395e-06
5.78587e-06
3.72589e-06
-4.12781e-06
-6.22408e-06
6.6885e-06
3.55478e-06
-4.0192e-06
-7.15946e-06
7.62131e-06
3.33686e-06
-3.79871e-06
-8.0625e-06
8.4742e-06
2.92648e-06
-3.33818e-06
-8.84844e-06
9.1777e-06
2.30002e-06
-2.62927e-06
-9.45494e-06
9.67335e-06
1.4705e-06
-1.6889e-06
-9.82683e-06
9.90989e-06
4.70339e-07
-5.53394e-07
-9.9182e-06
9.84788e-06
-6.53966e-07
7.24277e-07
-9.69599e-06
9.46064e-06
-1.85566e-06
2.09101e-06
-9.14065e-06
8.73614e-06
-3.07584e-06
3.48035e-06
-8.24857e-06
7.6806e-06
-4.24745e-06
4.81542e-06
-7.03612e-06
6.3205e-06
-5.30338e-06
6.019e-06
-5.53992e-06
4.7019e-06
-6.17954e-06
7.01756e-06
-3.81482e-06
2.88761e-06
-6.81801e-06
7.74522e-06
-1.92996e-06
9.51602e-07
-7.17915e-06
8.15751e-06
-5.17541e-06
7.37935e-06
-2.20394e-06
1.7994e-06
4.81303e-07
1.0592e-05
-1.28727e-05
-2.93864e-06
4.12322e-06
1.04102e-05
-1.15948e-05
-4.63182e-06
5.00333e-06
5.61205e-06
-5.98356e-06
-5.37412e-06
5.7805e-06
4.52412e-06
-4.9305e-06
-6.23049e-06
6.71037e-06
4.48852e-06
-4.9684e-06
-7.20089e-06
7.6855e-06
4.27117e-06
-4.75579e-06
-8.15113e-06
8.58707e-06
3.76125e-06
-4.19719e-06
-8.98484e-06
9.33641e-06
2.96907e-06
-3.32064e-06
-9.63447e-06
9.87181e-06
1.91613e-06
-2.15347e-06
-1.00423e-05
1.01401e-05
6.43352e-07
-7.41191e-07
-1.01605e-05
1.00992e-05
-7.90428e-07
8.51695e-07
-9.95319e-06
9.7202e-06
-2.32529e-06
2.55828e-06
-9.39906e-06
8.98978e-06
-3.88716e-06
4.29643e-06
-8.49367e-06
7.91351e-06
-5.38921e-06
5.96937e-06
-7.25329e-06
6.51861e-06
-6.74366e-06
7.47835e-06
-5.71597e-06
4.85319e-06
-7.86715e-06
8.72994e-06
-3.93904e-06
2.98265e-06
-8.68611e-06
9.6425e-06
-1.99422e-06
9.83844e-07
-9.1511e-06
1.01615e-05
-9.29248e-06
8.13555e-06
1.15693e-06
8.7949e-07
2.06517e-06
1.56067e-05
-1.85514e-05
-4.15996e-06
4.71353e-06
1.27411e-05
-1.32947e-05
-4.75818e-06
4.93951e-06
6.27569e-06
-6.45702e-06
-5.27675e-06
5.71153e-06
5.35287e-06
-5.78764e-06
-6.20166e-06
6.7181e-06
5.46472e-06
-5.98116e-06
-7.24148e-06
7.7583e-06
5.2551e-06
-5.77192e-06
-8.25621e-06
8.72402e-06
4.64815e-06
-5.11596e-06
-9.15201e-06
9.5318e-06
3.68554e-06
-4.06532e-06
-9.85602e-06
1.01175e-05
2.40226e-06
-2.66374e-06
-1.03094e-05
1.04258e-05
8.47853e-07
-9.6425e-07
-1.04614e-05
1.04118e-05
-9.0742e-07
9.56923e-07
-1.02735e-05
1.00438e-05
-2.78982e-06
3.01954e-06
-9.72149e-06
9.30638e-06
-4.70854e-06
5.12364e-06
-8.79982e-06
8.20466e-06
-6.55667e-06
7.15183e-06
-7.52502e-06
6.76672e-06
-8.22425e-06
8.98255e-06
-5.93659e-06
5.0428e-06
-9.6075e-06
1.05013e-05
-4.09466e-06
3.10188e-06
-1.06162e-05
1.16089e-05
-2.07519e-06
1.02517e-06
-1.11905e-05
1.22406e-05
-2.69998e-05
2.14904e-06
2.48507e-05
-1.80935e-05
1.69676e-05
2.07756e-05
-1.96498e-05
-1.03029e-05
6.08214e-06
1.19124e-05
-7.69163e-06
-4.98539e-06
4.90459e-06
6.50822e-06
-6.42742e-06
-5.18471e-06
5.63628e-06
6.22969e-06
-6.68126e-06
-6.16662e-06
6.72809e-06
6.51914e-06
-7.08062e-06
-7.29512e-06
7.85399e-06
6.30843e-06
-6.8673e-06
-8.39242e-06
8.8982e-06
5.6018e-06
-6.10758e-06
-9.36137e-06
9.77331e-06
4.46083e-06
-4.87277e-06
-1.01269e-05
1.04151e-05
2.93849e-06
-3.22671e-06
-1.06311e-05
1.07691e-05
1.09123e-06
-1.22923e-06
-1.08228e-05
1.07874e-05
-9.99629e-07
1.03504e-06
-1.06584e-05
1.04333e-05
-3.24711e-06
3.47227e-06
-1.011e-05
9.68841e-06
-5.5419e-06
5.96354e-06
-9.16962e-06
8.55662e-06
-7.75559e-06
8.36858e-06
-7.85369e-06
7.06695e-06
-9.7545e-06
1.05412e-05
-6.20358e-06
5.27221e-06
-1.1413e-05
1.23443e-05
-4.2828e-06
3.24548e-06
-1.2623e-05
1.36603e-05
-2.17208e-06
1.07379e-06
-1.33136e-05
1.44119e-05
-2.84973e-06
1.99454e-06
8.5519e-07
-2.99119e-06
6.08812e-06
2.52271e-05
-2.8324e-05
-8.86097e-06
1.11735e-05
2.44404e-05
-2.6753e-05
-1.32966e-05
1.54804e-05
1.8461e-05
-2.06448e-05
-1.78208e-05
2.02969e-05
1.63917e-05
-1.88679e-05
-2.28427e-05
2.53956e-05
1.63896e-05
-1.89426e-05
-2.79172e-05
3.03922e-05
1.65786e-05
-1.90536e-05
-3.28209e-05
3.521e-05
1.64413e-05
-1.88303e-05
-3.75662e-05
3.9894e-05
1.5985e-05
-1.83128e-05
-4.21937e-05
4.44621e-05
1.52478e-05
-1.75162e-05
-4.66937e-05
4.88807e-05
1.42032e-05
-1.63902e-05
-5.10146e-05
5.30847e-05
1.27903e-05
-1.48604e-05
-5.50793e-05
5.69854e-05
1.09134e-05
-1.28195e-05
-5.87883e-05
6.0473e-05
8.47411e-06
-1.01588e-05
-6.2022e-05
6.34179e-05
5.36305e-06
-6.75892e-06
-6.46434e-05
6.56832e-05
1.47451e-06
-2.51428e-06
-6.65246e-05
6.71619e-05
-3.2794e-06
2.64213e-06
-6.75942e-05
6.78254e-05
-8.96427e-06
8.73311e-06
-6.7863e-05
6.77147e-05
-1.56183e-05
1.57665e-05
-6.73831e-05
6.6856e-05
-2.32832e-05
2.38103e-05
-6.60862e-05
6.49766e-05
-3.21475e-05
3.32571e-05
-6.33591e-05
6.0989e-05
-4.33635e-05
4.57336e-05
-5.76961e-05
5.56791e-05
-6.34005e-05
6.54174e-05
-8.44905e-07
-5.99792e-07
1.4447e-06
-3.81629e-06
6.6525e-06
3.12926e-05
-3.41288e-05
-8.98077e-06
1.09691e-05
2.88892e-05
-3.08775e-05
-1.2991e-05
1.52414e-05
2.28519e-05
-2.51024e-05
-1.77156e-05
2.03187e-05
2.14163e-05
-2.40195e-05
-2.29567e-05
2.55717e-05
2.15367e-05
-2.41518e-05
-2.81435e-05
3.06748e-05
2.1559e-05
-2.40902e-05
-3.31773e-05
3.56633e-05
2.12637e-05
-2.37496e-05
-3.81411e-05
4.06153e-05
2.0705e-05
-2.31791e-05
-4.30863e-05
4.55525e-05
1.98695e-05
-2.23357e-05
-4.80105e-05
5.04553e-05
1.86861e-05
-2.11309e-05
-5.2881e-05
5.52775e-05
1.70697e-05
-1.94663e-05
-5.76324e-05
5.99299e-05
1.48987e-05
-1.71963e-05
-6.21518e-05
6.42773e-05
1.20479e-05
-1.41734e-05
-6.62809e-05
6.81353e-05
8.37816e-06
-1.02325e-05
-6.98134e-05
7.12942e-05
3.77922e-06
-5.26e-06
-7.2568e-05
7.36193e-05
-1.78721e-06
7.35917e-07
-7.446e-05
7.50938e-05
-8.28155e-06
7.64768e-06
-7.55402e-05
7.58279e-05
-1.56603e-05
1.53726e-05
-7.60052e-05
7.6136e-05
-2.39796e-05
2.38487e-05
-7.6313e-05
7.6666e-05
-3.35683e-05
3.32153e-05
-7.74429e-05
7.89816e-05
-4.54723e-05
4.39336e-05
-8.1931e-05
8.64744e-05
-6.08119e-05
5.62685e-05
2.34863e-06
-4.38283e-06
2.03419e-06
-4.68122e-06
7.27e-06
3.68387e-05
-3.94275e-05
-9.21499e-06
1.10026e-05
3.27475e-05
-3.45351e-05
-1.30443e-05
1.54172e-05
2.7407e-05
-2.97799e-05
-1.80101e-05
2.06891e-05
2.66626e-05
-2.93416e-05
-2.33707e-05
2.60258e-05
2.67838e-05
-2.94389e-05
-2.86578e-05
3.12814e-05
2.66619e-05
-2.92856e-05
-3.39103e-05
3.6552e-05
2.63148e-05
-2.89564e-05
-3.92074e-05
4.18719e-05
2.57686e-05
-2.84332e-05
-4.45341e-05
4.7178e-05
2.4947e-05
-2.75909e-05
-4.97845e-05
5.23329e-05
2.37389e-05
-2.62873e-05
-5.48029e-05
5.71702e-05
2.20218e-05
-2.43891e-05
-5.9417e-05
6.15414e-05
1.96217e-05
-2.17461e-05
-6.35594e-05
6.5503e-05
1.64018e-05
-1.83453e-05
-6.73995e-05
6.92854e-05
1.22093e-05
-1.40952e-05
-7.11921e-05
7.31394e-05
6.94035e-06
-8.88769e-06
-7.51258e-05
7.7083e-05
6.47283e-07
-2.60449e-06
-7.89748e-05
8.06873e-05
-6.68431e-06
4.97178e-06
-8.21737e-05
8.34081e-05
-1.48056e-05
1.35712e-05
-8.44071e-05
8.52407e-05
-2.3495e-05
2.26614e-05
-8.60396e-05
8.69584e-05
-3.25543e-05
3.16355e-05
-8.81824e-05
8.99832e-05
-4.21149e-05
4.03141e-05
-9.27126e-05
9.65386e-05
-5.20325e-05
4.82065e-05
6.64173e-06
-9.15322e-06
2.51149e-06
-5.15134e-06
7.35907e-06
4.18768e-05
-4.40845e-05
-9.09495e-06
1.09026e-05
3.63013e-05
-3.8109e-05
-1.3076e-05
1.55427e-05
3.22298e-05
-3.46965e-05
-1.8117e-05
2.06718e-05
3.20269e-05
-3.45818e-05
-2.31594e-05
2.5575e-05
3.20688e-05
-3.44845e-05
-2.79221e-05
3.01979e-05
3.187e-05
-3.41457e-05
-3.23903e-05
3.44839e-05
3.15022e-05
-3.35958e-05
-3.64664e-05
3.83297e-05
3.08878e-05
-3.2751e-05
-4.00563e-05
4.1656e-05
2.98491e-05
-3.14488e-05
-4.31809e-05
4.47255e-05
2.82698e-05
-2.98143e-05
-4.64277e-05
4.84176e-05
2.6115e-05
-2.81049e-05
-5.08782e-05
5.39812e-05
2.33956e-05
-2.64986e-05
-5.78494e-05
6.25478e-05
2.02609e-05
-2.49594e-05
-6.77711e-05
7.33286e-05
1.64846e-05
-2.20421e-05
-7.90026e-05
8.43759e-05
1.16592e-05
-1.70325e-05
-8.89053e-05
9.21204e-05
5.36499e-06
-8.5801e-06
-9.40037e-05
9.47683e-05
-2.58463e-06
1.81997e-06
-9.39651e-05
9.26439e-05
-1.1813e-05
1.31343e-05
-9.13388e-05
9.07639e-05
-2.12619e-05
2.18369e-05
-9.12422e-05
9.2361e-05
-3.0187e-05
2.90682e-05
-9.39446e-05
9.60269e-05
-3.8453e-05
3.63707e-05
-9.86504e-05
0.000101808
-4.49745e-05
4.18174e-05
1.23647e-05
-1.72982e-05
4.93351e-06
-5.57442e-06
6.45253e-06
4.57952e-05
-4.66733e-05
-7.46157e-06
9.03368e-06
3.99186e-05
-4.14907e-05
-1.09793e-05
1.30148e-05
3.69992e-05
-3.90347e-05
-1.49879e-05
1.68832e-05
3.67847e-05
-3.86801e-05
-1.87416e-05
2.06166e-05
3.64798e-05
-3.83548e-05
-2.25382e-05
2.45793e-05
3.59515e-05
-3.79925e-05
-2.68274e-05
2.94108e-05
3.52548e-05
-3.78383e-05
-3.2518e-05
3.64749e-05
3.44708e-05
-3.84277e-05
-4.14144e-05
4.76468e-05
3.36374e-05
-3.98698e-05
-5.56813e-05
6.61012e-05
3.33374e-05
-4.37573e-05
-7.91322e-05
9.35e-05
3.40879e-05
-4.84558e-05
-0.00010988
0.00012929
3.56603e-05
-5.50707e-05
-0.000152573
0.000177165
3.76629e-05
-6.22546e-05
-0.000198242
0.000213627
3.35726e-05
-4.89575e-05
-0.000222127
0.000225561
2.63503e-05
-2.9785e-05
-0.000225722
0.000221658
1.26444e-05
-8.5803e-06
-0.000210191
0.000193183
-5.45526e-06
2.24632e-05
-0.000177967
0.000163376
-2.21446e-05
3.67348e-05
-0.000147037
0.000131334
-3.04257e-05
4.6128e-05
-0.000120427
0.000113444
-3.31055e-05
4.00894e-05
-0.000108927
0.000106587
-3.66905e-05
3.90308e-05
-0.000105942
0.000106579
-3.94577e-05
3.88207e-05
2.54578e-05
-3.7494e-05
1.20362e-05
-1.48388e-05
1.345e-05
4.64707e-05
-4.50819e-05
-1.15024e-05
1.26879e-05
4.26054e-05
-4.37909e-05
-1.58477e-05
1.95426e-05
4.12933e-05
-4.49882e-05
-2.34859e-05
2.79342e-05
4.10753e-05
-4.55236e-05
-3.31922e-05
3.92759e-05
4.14226e-05
-4.75063e-05
-4.6012e-05
5.41141e-05
4.21565e-05
-5.02586e-05
-6.40773e-05
7.68192e-05
4.40813e-05
-5.68232e-05
-9.3908e-05
0.000111566
4.84247e-05
-6.60825e-05
-0.000127817
0.000142455
5.38198e-05
-6.84576e-05
-0.000153352
0.000157827
6.8088e-05
-7.25631e-05
-0.000158661
0.000159113
6.96771e-05
-7.01285e-05
-0.00015783
0.000155112
6.20034e-05
-5.92848e-05
-0.000150647
0.000144385
5.53149e-05
-4.90528e-05
-0.000137308
0.000131088
4.18999e-05
-3.56802e-05
-0.000126427
0.000124056
2.7025e-05
-2.46535e-05
-0.000122218
0.000114418
1.10754e-05
-3.27548e-06
-0.000101961
9.22533e-05
-2.06676e-05
3.03749e-05
-9.26362e-05
0.000101584
-4.21509e-05
3.32035e-05
-0.000114554
0.000126065
-5.42725e-05
4.27611e-05
-0.000133989
0.000140802
-5.14139e-05
4.46018e-05
-0.000144901
0.000141746
-4.55799e-05
4.87345e-05
-0.000132906
0.000122609
-3.91461e-05
4.94437e-05
5.19451e-05
-4.81341e-05
-3.81101e-06
-1.4095e-05
2.14558e-05
4.41356e-05
-5.14963e-05
-2.67251e-05
3.09539e-05
4.62959e-05
-5.05247e-05
-3.46641e-05
3.87675e-05
5.11666e-05
-5.527e-05
-4.2845e-05
4.61917e-05
5.37161e-05
-5.70628e-05
-4.80102e-05
5.04818e-05
5.65988e-05
-5.90704e-05
-5.40424e-05
5.80492e-05
5.69693e-05
-6.09761e-05
-6.23399e-05
6.69149e-05
6.22636e-05
-6.68386e-05
-7.19625e-05
7.87225e-05
6.99944e-05
-7.67543e-05
-8.8475e-05
0.00010092
7.6358e-05
-8.88033e-05
-0.000113928
0.000124842
7.86535e-05
-8.95679e-05
-0.000132715
0.000138139
7.23704e-05
-7.77938e-05
-0.000142035
0.000144511
6.01324e-05
-6.26084e-05
-0.000145207
0.000143791
4.63296e-05
-4.49138e-05
-0.000140167
0.000134321
3.01591e-05
-2.43138e-05
-0.00012561
0.000112727
1.6643e-05
-3.75998e-06
-9.4945e-05
7.5031e-05
-1.69099e-05
3.6824e-05
-6.55839e-05
7.05859e-05
-3.62808e-05
3.12788e-05
-8.32947e-05
9.81328e-05
-1.73503e-05
2.5122e-06
-0.000111058
0.000123021
-2.13272e-05
9.36363e-06
-0.00013321
0.000141052
-3.0133e-05
2.22907e-05
-0.000148712
0.000159789
-4.20637e-05
3.09861e-05
-0.000173265
0.000184693
-5.57535e-05
4.43252e-05
4.12021e-05
-3.7651e-05
-3.5511e-06
4.20644e-06
3.8106e-06
5.81345e-05
-6.61515e-05
-1.02254e-05
1.46397e-05
5.58363e-05
-6.02507e-05
-1.79614e-05
2.09842e-05
5.77369e-05
-6.07597e-05
-2.41124e-05
2.73652e-05
5.97179e-05
-6.29707e-05
-3.07605e-05
3.44528e-05
6.21249e-05
-6.58172e-05
-3.85403e-05
4.29923e-05
6.56734e-05
-7.01255e-05
-4.7648e-05
5.22254e-05
7.27673e-05
-7.73447e-05
-5.75053e-05
6.62088e-05
8.58472e-05
-9.45508e-05
-7.76625e-05
8.84168e-05
0.000102631
-0.000113385
-9.6782e-05
0.000103029
9.99404e-05
-0.000106188
-0.000107794
0.000112573
8.2975e-05
-8.77537e-05
-0.000117975
0.000123564
6.58329e-05
-7.14221e-05
-0.000128634
0.000132404
4.52959e-05
-4.90654e-05
-0.000134508
0.000134979
2.06509e-05
-2.11223e-05
-0.000133653
0.000130084
-6.5254e-06
1.00941e-05
-0.000125984
0.000124581
-4.79116e-05
4.93144e-05
-0.000122234
0.000116111
-3.11415e-05
3.72641e-05
-0.000108115
0.000102001
1.56172e-07
5.95719e-06
-0.000100464
0.000102106
-4.02618e-06
2.38466e-06
-0.000105188
0.000108639
-1.72255e-05
1.37741e-05
-0.000112461
0.000117401
-2.19096e-05
1.69694e-05
-0.000124713
0.000136371
-2.53238e-05
1.36657e-05
3.70422e-05
-3.81652e-05
1.12292e-06
-2.45254e-06
5.91779e-06
7.06145e-05
-7.40797e-05
-9.1986e-06
1.24988e-05
6.38698e-05
-6.717e-05
-1.58317e-05
1.9101e-05
6.41931e-05
-6.74623e-05
-2.22514e-05
2.52674e-05
6.62782e-05
-6.92942e-05
-2.81744e-05
3.09871e-05
6.91184e-05
-7.19311e-05
-3.36607e-05
3.6024e-05
7.34125e-05
-7.57759e-05
-3.7838e-05
3.86552e-05
7.97839e-05
-8.06012e-05
-4.03755e-05
4.69643e-05
0.000102468
-0.000109057
-5.09794e-05
5.00937e-05
0.000118666
-0.00011778
-4.63665e-05
4.53512e-05
0.000107035
-0.00010602
-4.95379e-05
5.74613e-05
9.38964e-05
-0.00010182
-6.76887e-05
7.89038e-05
8.04253e-05
-9.16404e-05
-9.00108e-05
0.000100097
5.65427e-05
-6.66286e-05
-0.000108574
0.000115272
2.53477e-05
-3.20448e-05
-0.000120447
0.000124767
-8.07332e-06
3.75381e-06
-0.000129048
0.000134105
-4.54072e-05
4.03501e-05
-0.00013716
0.000135259
-4.31275e-05
4.50284e-05
-0.000129508
0.000122613
-1.41848e-05
2.10798e-05
-0.000116667
0.000113006
-4.36125e-06
8.02179e-06
-0.000112186
0.00011375
-1.11389e-05
9.5751e-06
-0.000116639
0.000119861
-1.36365e-05
1.0414e-05
-0.000122661
0.000124468
-1.04747e-05
8.66817e-06
4.06762e-05
-4.40868e-05
3.41061e-06
-4.97521e-06
7.0239e-06
7.67813e-05
-7.883e-05
-9.2731e-06
1.19545e-05
7.0151e-05
-7.28324e-05
-1.4775e-05
1.75441e-05
7.04751e-05
-7.32443e-05
-2.02022e-05
2.27456e-05
7.20578e-05
-7.46013e-05
-2.5154e-05
2.73641e-05
7.44066e-05
-7.66167e-05
-2.93151e-05
3.07305e-05
7.75075e-05
-7.89228e-05
-3.16409e-05
3.15919e-05
8.05252e-05
-8.04762e-05
-2.99652e-05
2.60921e-05
0.000110723
-0.00010685
-2.32796e-05
1.99824e-05
0.000113482
-0.000110185
-1.80746e-05
1.86123e-05
0.000106867
-0.000107405
-2.0631e-05
2.37965e-05
0.000108721
-0.000111886
-2.85567e-05
3.50577e-05
0.000101912
-0.000108413
-4.20798e-05
4.91725e-05
7.71338e-05
-8.42264e-05
-5.73835e-05
6.64427e-05
4.03785e-05
-4.94377e-05
-7.45884e-05
8.02782e-05
1.66061e-06
-7.35035e-06
-8.56375e-05
9.11479e-05
-3.54561e-05
2.99456e-05
-9.72562e-05
0.000102735
-4.37509e-05
3.82718e-05
-0.000106438
0.00010833
-2.43285e-05
2.24369e-05
-0.000109112
0.000109739
-1.02584e-05
9.63149e-06
-0.000111084
0.000113458
-8.13004e-06
5.75573e-06
-0.000116579
0.000119948
-7.29642e-06
3.92689e-06
-0.000123205
0.000126166
-6.2096e-06
3.24853e-06
4.7994e-05
-5.21328e-05
4.13882e-06
-6.15289e-06
7.57387e-06
8.04639e-05
-8.18849e-05
-9.46426e-06
1.17515e-05
7.52875e-05
-7.75748e-05
-1.41335e-05
1.6482e-05
7.57825e-05
-7.8131e-05
-1.8765e-05
2.09646e-05
7.69515e-05
-7.9151e-05
-2.30472e-05
2.49825e-05
7.86505e-05
-8.05857e-05
-2.67153e-05
2.8298e-05
8.0354e-05
-8.19366e-05
-2.95313e-05
3.09825e-05
8.12195e-05
-8.26708e-05
-2.95578e-05
2.20737e-05
9.96565e-05
-9.21723e-05
-1.5725e-05
1.48523e-05
0.000108888
-0.000108015
-1.48215e-05
1.35053e-05
0.000106659
-0.000105343
-1.13909e-05
8.11577e-06
0.000111033
-0.000107758
-3.8394e-06
-4.47446e-07
0.00010877
-0.000104483
3.18761e-06
-4.09367e-06
8.6942e-05
-8.60359e-05
3.94321e-06
-2.55003e-06
5.65068e-05
-5.79e-05
-1.80788e-06
9.71083e-06
1.37732e-05
-2.16761e-05
-2.03321e-05
3.47661e-05
-2.11708e-05
6.7368e-06
-5.0412e-05
6.48e-05
-2.7214e-05
1.28259e-05
-7.66897e-05
8.60328e-05
-1.58548e-05
6.5117e-06
-9.3377e-05
9.95446e-05
-6.03083e-06
-1.36686e-07
-0.000105108
0.000110291
-1.87439e-06
-3.3088e-06
-0.000115106
0.000119534
-2.71762e-10
-4.42804e-06
-0.000123616
0.000127432
1.162e-07
-3.93147e-06
5.62958e-05
-6.03384e-05
4.04253e-06
-6.12185e-06
7.47382e-06
8.32267e-05
-8.45786e-05
-9.30075e-06
1.13745e-05
7.97377e-05
-8.18115e-05
-1.34812e-05
1.55675e-05
8.03304e-05
-8.24166e-05
-1.76176e-05
1.96165e-05
8.12362e-05
-8.32351e-05
-2.15436e-05
2.33863e-05
8.24638e-05
-8.43064e-05
-2.51369e-05
2.68955e-05
8.3641e-05
-8.53997e-05
-2.86115e-05
3.03888e-05
8.43662e-05
-8.61435e-05
-3.25755e-05
3.24056e-05
8.77759e-05
-8.76061e-05
-2.69124e-05
2.25231e-05
0.000105624
-0.000101234
-2.17189e-05
2.04735e-05
0.000104163
-0.000102917
-1.79722e-05
1.46304e-05
0.000103959
-0.000100617
-1.04557e-05
5.71557e-06
9.89368e-05
-9.41967e-05
-1.41571e-06
-1.21455e-06
8.33249e-05
-8.06947e-05
1.85287e-06
-2.48467e-07
5.84751e-05
-6.00795e-05
-3.89898e-06
1.14452e-05
2.94823e-05
-3.70285e-05