/*--------------------------------*- C++ -*----------------------------------*\
| =========                 |                                                 |
| \\      /  F ield         | OpenFOAM: The Open Source CFD Toolbox           |
|  \\    /   O peration     | Version:  v1912                                 |
|   \\  /    A nd           | Website:  www.openfoam.com                      |
|    \\/     M anipulation  |                                                 |
\*---------------------------------------------------------------------------*/
FoamFile
{
    version     2.0;
    format      ascii;
    class       volVectorField;
    location    "0.3";
    object      U;
}
// * * * * * * * * * * * * * * * * * * * * * * * * * * * * * * * * * * * * * //

dimensions      [0 1 -1 0 0 0 0];


internalField   nonuniform List<vector> 
9072
(
(-0.0136383 0.00702536 0)
(0.0245892 -0.00821604 0)
(0.106025 -0.00922685 0)
(0.176227 -0.00661793 0)
(0.225862 -0.0049202 0)
(0.266911 -0.00457359 0)
(0.307873 -0.00476203 0)
(0.350512 -0.00490609 0)
(0.393528 -0.00483975 0)
(0.435151 -0.00457901 0)
(0.473901 -0.00415877 0)
(0.508485 -0.00358198 0)
(0.537506 -0.0028201 0)
(0.559218 -0.00181952 0)
(0.57115 -0.000441232 0)
(0.567541 0.0028623 0)
(0.531831 0.00968321 0)
(0.43899 0.0224576 0)
(0.245158 0.0391199 0)
(-0.0454161 0.0131125 0)
(-0.0467571 -0.0556649 0)
(-0.251304 0.0681955 0)
(-0.382104 -0.0360504 0)
(-0.0131682 0.0160852 0)
(0.0259765 -0.0425995 0)
(0.108178 -0.0476382 0)
(0.178444 -0.0347413 0)
(0.228859 -0.0262057 0)
(0.271283 -0.0243101 0)
(0.31368 -0.0251277 0)
(0.357597 -0.0258081 0)
(0.401764 -0.0254876 0)
(0.444512 -0.024217 0)
(0.484449 -0.0221624 0)
(0.520342 -0.0193448 0)
(0.550852 -0.0156361 0)
(0.574332 -0.0107851 0)
(0.58869 -0.0043391 0)
(0.591208 0.00423826 0)
(0.579183 0.0172591 0)
(0.555342 0.0426211 0)
(0.535589 0.098315 0)
(0.453301 0.158412 0)
(0.102276 0.0779321 0)
(-0.308765 0.206734 0)
(-0.275437 -0.206772 0)
(-0.0126995 0.0243258 0)
(0.0275612 -0.0770374 0)
(0.108953 -0.085132 0)
(0.176706 -0.0620937 0)
(0.226145 -0.0473998 0)
(0.269309 -0.0443543 0)
(0.312926 -0.0458132 0)
(0.357788 -0.0469019 0)
(0.402535 -0.0462298 0)
(0.445685 -0.0439226 0)
(0.486023 -0.0402579 0)
(0.522414 -0.0352508 0)
(0.55357 -0.0286664 0)
(0.577898 -0.0200823 0)
(0.59343 -0.00884015 0)
(0.597765 0.00619417 0)
(0.588135 0.0273691 0)
(0.562374 0.0593658 0)
(0.523016 0.10911 0)
(0.505782 0.191711 0)
(0.438735 0.275317 0)
(0.107239 0.276368 0)
(0.0493421 -0.200388 0)
(-0.0120013 0.0313419 0)
(0.0299443 -0.111689 0)
(0.109717 -0.121286 0)
(0.173969 -0.0883799 0)
(0.22236 -0.0686662 0)
(0.266786 -0.0650642 0)
(0.312163 -0.0671383 0)
(0.358325 -0.0684132 0)
(0.403884 -0.0672363 0)
(0.447647 -0.0638571 0)
(0.488642 -0.0586233 0)
(0.525859 -0.0515038 0)
(0.55807 -0.0421454 0)
(0.583756 -0.0299713 0)
(0.601096 -0.0141505 0)
(0.608014 0.00659967 0)
(0.602453 0.0345023 0)
(0.583435 0.0732413 0)
(0.553093 0.127243 0)
(0.515969 0.197518 0)
(0.525092 0.312148 0)
(0.509953 0.34553 0)
(0.340636 -0.0868337 0)
(-0.0109774 0.0366639 0)
(0.032932 -0.146394 0)
(0.110163 -0.155607 0)
(0.170337 -0.113442 0)
(0.21793 -0.0902051 0)
(0.264087 -0.0866902 0)
(0.311507 -0.0892648 0)
(0.359082 -0.0904347 0)
(0.405534 -0.0885869 0)
(0.450044 -0.0841196 0)
(0.491898 -0.0773877 0)
(0.530205 -0.0682666 0)
(0.563799 -0.0562739 0)
(0.591239 -0.0406988 0)
(0.610853 -0.0205921 0)
(0.620852 0.00536845 0)
(0.619677 0.039158 0)
(0.606799 0.0835473 0)
(0.584022 0.141309 0)
(0.556352 0.212584 0)
(0.532221 0.29113 0)
(0.588856 0.343704 0)
(0.440472 0.10409 0)
(-0.00949704 0.0397933 0)
(0.036354 -0.18089 0)
(0.110175 -0.187746 0)
(0.166162 -0.137329 0)
(0.213456 -0.112235 0)
(0.261668 -0.10936 0)
(0.31115 -0.112219 0)
(0.360079 -0.112975 0)
(0.40745 -0.110324 0)
(0.452847 -0.104793 0)
(0.495776 -0.0966653 0)
(0.535438 -0.0856789 0)
(0.570724 -0.0712175 0)
(0.600268 -0.0524552 0)
(0.622526 -0.0283647 0)
(0.63592 0.00234748 0)
(0.639183 0.0413648 0)
(0.631958 0.0907237 0)
(0.61556 0.152075 0)
(0.592946 0.224648 0)
(0.564931 0.298227 0)
(0.537609 0.344552 0)
(0.397697 0.28682 0)
(-0.00773439 0.040234 0)
(0.0401125 -0.21487 0)
(0.109776 -0.217476 0)
(0.161887 -0.160269 0)
(0.209499 -0.134971 0)
(0.259898 -0.13309 0)
(0.311242 -0.135937 0)
(0.361359 -0.136009 0)
(0.409664 -0.132489 0)
(0.456097 -0.125966 0)
(0.500321 -0.116569 0)
(0.541597 -0.103869 0)
(0.578869 -0.087119 0)
(0.610841 -0.0653922 0)
(0.636067 -0.0376078 0)
(0.65309 -0.00253603 0)
(0.660796 0.0412088 0)
(0.658861 0.0951147 0)
(0.64809 0.160189 0)
(0.629619 0.235567 0)
(0.601377 0.315861 0)
(0.536664 0.382185 0)
(0.364549 0.444021 0)
(-0.00590872 0.0380535 0)
(0.0441619 -0.248035 0)
(0.109061 -0.244802 0)
(0.157929 -0.182605 0)
(0.20645 -0.158558 0)
(0.258942 -0.157783 0)
(0.311793 -0.160285 0)
(0.362903 -0.159496 0)
(0.412174 -0.155133 0)
(0.459805 -0.147738 0)
(0.505537 -0.137225 0)
(0.548668 -0.12299 0)
(0.588199 -0.104161 0)
(0.622905 -0.0797168 0)
(0.651409 -0.0485246 0)
(0.672303 -0.00941352 0)
(0.68447 0.0387394 0)
(0.687512 0.0969533 0)
(0.68197 0.165873 0)
(0.668195 0.245361 0)
(0.642011 0.33447 0)
(0.580988 0.434363 0)
(0.409147 0.585333 0)
(0.000105205 -0.00274128 0)
(0.0199238 -0.00222344 0)
(0.0494091 -0.00231502 0)
(0.074601 -0.00152191 0)
(0.0928583 -0.00112845 0)
(0.108282 -0.00106884 0)
(0.122531 -0.00100504 0)
(0.135273 -0.000864523 0)
(0.145693 -0.000655273 0)
(0.152857 -0.000350985 0)
(0.155842 8.33346e-05 0)
(0.15365 0.000495094 0)
(0.14657 0.000865865 0)
(0.134788 0.00122629 0)
(0.11855 0.00155636 0)
(0.0983162 0.001838 0)
(0.0747234 0.0020641 0)
(0.048582 0.00222694 0)
(0.0208507 0.00229597 0)
(-0.000460034 -0.00546071 0)
(0.0224313 -0.0163315 0)
(0.0628685 -0.018527 0)
(0.0976044 -0.0137939 0)
(0.123545 -0.0109164 0)
(0.145716 -0.00977635 0)
(0.166106 -0.00893462 0)
(0.184505 -0.00776639 0)
(0.199836 -0.00599009 0)
(0.210893 -0.00368423 0)
(0.216618 -0.000915553 0)
(0.216332 0.00215156 0)
(0.209294 0.0053751 0)
(0.195066 0.00859705 0)
(0.173679 0.0116466 0)
(0.145576 0.0143643 0)
(0.111605 0.0165938 0)
(0.0730098 0.0182068 0)
(0.0313774 0.0190949 0)
(-0.00319286 -0.00548907 0)
(0.015929 -0.031784 0)
(0.0640708 -0.0363416 0)
(0.100167 -0.0261469 0)
(0.124743 -0.0207097 0)
(0.146476 -0.0187635 0)
(0.167087 -0.0173024 0)
(0.185845 -0.0150762 0)
(0.201543 -0.0117569 0)
(0.212957 -0.00737394 0)
(0.218971 -0.00213558 0)
(0.218679 0.00372402 0)
(0.211446 0.00996219 0)
(0.196951 0.0162633 0)
(0.175248 0.022295 0)
(0.146803 0.0277231 0)
(0.112487 0.0322135 0)
(0.0735594 0.0354862 0)
(0.0316254 0.0373368 0)
(-0.0101456 0.00244861 0)
(-0.000737585 -0.0488216 0)
(0.0661635 -0.0576652 0)
(0.104407 -0.0377732 0)
(0.126049 -0.0299553 0)
(0.146944 -0.0278049 0)
(0.167848 -0.0258454 0)
(0.187142 -0.0225903 0)
(0.203404 -0.0176987 0)
(0.215321 -0.0112294 0)
(0.221732 -0.00346183 0)
(0.221694 0.00526421 0)
(0.214562 0.0145756 0)
(0.199994 0.0240131 0)
(0.17804 0.0330688 0)
(0.149179 0.0412224 0)
(0.114323 0.04798 0)
(0.074774 0.0529124 0)
(0.0321661 0.0557088 0)
(-0.0244177 0.0253877 0)
(-0.00999173 -0.0746108 0)
(0.0735925 -0.0832917 0)
(0.109152 -0.0481132 0)
(0.127358 -0.0381558 0)
(0.147352 -0.0367377 0)
(0.168832 -0.0346105 0)
(0.188952 -0.0304025 0)
(0.206016 -0.0239111 0)
(0.218655 -0.0153233 0)
(0.22565 -0.00495314 0)
(0.226021 0.00669763 0)
(0.219089 0.0191641 0)
(0.204478 0.0318317 0)
(0.18222 0.044003 0)
(0.152802 0.054969 0)
(0.117173 0.0640627 0)
(0.0766834 0.0706971 0)
(0.0330147 0.0744624 0)
(-0.0412876 0.0602571 0)
(-0.0195138 -0.111411 0)
(0.0854323 -0.107127 0)
(0.109904 -0.0564208 0)
(0.127197 -0.045858 0)
(0.147667 -0.0459078 0)
(0.170033 -0.0438134 0)
(0.191258 -0.0386167 0)
(0.209394 -0.0305175 0)
(0.222982 -0.0197385 0)
(0.230752 -0.00670405 0)
(0.231671 0.00798827 0)
(0.225006 0.0237139 0)
(0.210344 0.0397297 0)
(0.187695 0.0551459 0)
(0.157561 0.0690473 0)
(0.120925 0.080569 0)
(0.0791968 0.0889765 0)
(0.0341146 0.0937684 0)
(-0.0526293 0.0687308 0)
(0.0232767 -0.174704 0)
(0.105036 -0.127965 0)
(0.109224 -0.0620174 0)
(0.125288 -0.0540421 0)
(0.147457 -0.0554938 0)
(0.171332 -0.053486 0)
(0.194021 -0.0473741 0)
(0.213538 -0.037609 0)
(0.228322 -0.0245606 0)
(0.237072 -0.00877605 0)
(0.238689 0.00906906 0)
(0.232372 0.0282126 0)
(0.217655 0.0477306 0)
(0.194531 0.0665556 0)
(0.163511 0.0835412 0)
(0.125621 0.097616 0)
(0.0823409 0.10789 0)
(0.0355165 0.113762 0)
(0.464017 -0.195506 0)
(0.467575 -0.194272 0)
(0.162175 -0.101631 0)
(0.109302 -0.0630488 0)
(0.12335 -0.0626946 0)
(0.147177 -0.06601 0)
(0.17306 -0.0639454 0)
(0.197585 -0.056832 0)
(0.218707 -0.0452922 0)
(0.234834 -0.0299182 0)
(0.244689 -0.0112443 0)
(0.247135 0.00989378 0)
(0.241246 0.0326306 0)
(0.226488 0.0558598 0)
(0.202807 0.0782879 0)
(0.170721 0.0985381 0)
(0.13131 0.115324 0)
(0.0861444 0.127584 0)
(0.0371788 0.134605 0)
(-0.00256635 0.0268855 0)
(0.0493221 -0.289196 0)
(0.108108 -0.276583 0)
(0.154168 -0.210969 0)
(0.204306 -0.190084 0)
(0.258904 -0.190529 0)
(0.31304 -0.192178 0)
(0.365187 -0.190211 0)
(0.415771 -0.184913 0)
(0.465133 -0.176599 0)
(0.513032 -0.16487 0)
(0.558834 -0.14891 0)
(0.60165 -0.1277 0)
(0.640364 -0.100102 0)
(0.673638 -0.064895 0)
(0.69999 -0.0209474 0)
(0.718137 0.0326182 0)
(0.727479 0.0962182 0)
(0.728319 0.169964 0)
(0.721214 0.254696 0)
(0.705032 0.354012 0)
(0.674702 0.484443 0)
(0.651614 0.709087 0)
(0.00158462 0.0020238 0)
(0.0576455 -0.353324 0)
(0.107228 -0.322804 0)
(0.150951 -0.258591 0)
(0.203919 -0.245029 0)
(0.260514 -0.246477 0)
(0.315737 -0.246221 0)
(0.369469 -0.242691 0)
(0.422661 -0.236488 0)
(0.475702 -0.227313 0)
(0.528461 -0.214323 0)
(0.580523 -0.196434 0)
(0.63107 -0.17234 0)
(0.678771 -0.140547 0)
(0.72179 -0.0993955 0)
(0.757861 -0.0476708 0)
(0.785194 0.0144341 0)
(0.803322 0.086268 0)
(0.81301 0.167564 0)
(0.816977 0.258717 0)
(0.821264 0.362066 0)
(0.839291 0.486249 0)
(0.899248 0.637559 0)
(0.00597551 -0.0356246 0)
(0.0663641 -0.411808 0)
(0.108113 -0.363147 0)
(0.152073 -0.308326 0)
(0.207594 -0.302064 0)
(0.265153 -0.303265 0)
(0.32167 -0.3017 0)
(0.378113 -0.298023 0)
(0.435118 -0.292346 0)
(0.492259 -0.283681 0)
(0.548213 -0.270813 0)
(0.601206 -0.252175 0)
(0.649438 -0.225927 0)
(0.692777 -0.190712 0)
(0.733479 -0.144949 0)
(0.774425 -0.0877215 0)
(0.816862 -0.0187731 0)
(0.857702 0.0627784 0)
(0.889491 0.155284 0)
(0.911283 0.252477 0)
(0.928246 0.350307 0)
(0.954384 0.44661 0)
(1.01185 0.539185 0)
(0.0113881 -0.0846399 0)
(0.0686886 -0.464389 0)
(0.106618 -0.401331 0)
(0.153146 -0.361222 0)
(0.208303 -0.360056 0)
(0.26172 -0.360148 0)
(0.312113 -0.357721 0)
(0.359193 -0.35343 0)
(0.401758 -0.346099 0)
(0.438769 -0.333248 0)
(0.471612 -0.313526 0)
(0.507857 -0.287363 0)
(0.560857 -0.256118 0)
(0.64423 -0.22426 0)
(0.756536 -0.187641 0)
(0.878163 -0.142296 0)
(0.975751 -0.075972 0)
(1.01535 0.0148675 0)
(1.00359 0.122671 0)
(0.975733 0.23794 0)
(0.983436 0.327678 0)
(1.01842 0.406529 0)
(1.07429 0.46852 0)
(0.0188404 -0.156352 0)
(0.0664894 -0.502786 0)
(0.087416 -0.440384 0)
(0.128827 -0.410979 0)
(0.1712 -0.407541 0)
(0.21114 -0.402885 0)
(0.252413 -0.395804 0)
(0.300694 -0.387403 0)
(0.368005 -0.380275 0)
(0.47364 -0.378432 0)
(0.646263 -0.394577 0)
(0.92129 -0.434378 0)
(1.2742 -0.48374 0)
(1.77019 -0.542108 0)
(2.23259 -0.490105 0)
(2.41265 -0.315725 0)
(2.40251 -0.0863167 0)
(2.15293 0.151844 0)
(1.83861 0.298417 0)
(1.48271 0.369526 0)
(1.24775 0.372156 0)
(1.15264 0.395043 0)
(1.13702 0.416734 0)
(0.0501703 -0.322388 0)
(0.17017 -0.494658 0)
(0.121821 -0.46706 0)
(0.189442 -0.461742 0)
(0.274102 -0.46251 0)
(0.387569 -0.474259 0)
(0.533151 -0.495198 0)
(0.747079 -0.536032 0)
(1.11177 -0.632476 0)
(1.4565 -0.699622 0)
(1.68335 -0.820536 0)
(1.7153 -0.771688 0)
(1.67918 -0.642106 0)
(1.58774 -0.533631 0)
(1.44207 -0.382144 0)
(1.33451 -0.27088 0)
(1.2875 -0.120911 0)
(1.02233 0.289559 0)
(1.02689 0.492979 0)
(1.30905 0.645944 0)
(1.48438 0.611228 0)
(1.54478 0.566307 0)
(1.36561 0.453184 0)
(-0.02279 -0.632066 0)
(0.224923 -0.535542 0)
(0.313354 -0.50957 0)
(0.392125 -0.579901 0)
(0.479187 -0.604851 0)
(0.530293 -0.616528 0)
(0.600791 -0.61991 0)
(0.691741 -0.682753 0)
(0.803876 -0.772259 0)
(1.01129 -0.870994 0)
(1.28571 -0.899361 0)
(1.46059 -0.810036 0)
(1.5416 -0.667117 0)
(1.55663 -0.495098 0)
(1.48097 -0.291513 0)
(1.29723 -0.106671 0)
(0.896217 0.305549 0)
(0.699504 0.354732 0)
(0.976809 0.0762951 0)
(1.25683 0.141014 0)
(1.48228 0.301979 0)
(1.64445 0.40933 0)
(1.93544 0.602128 0)
(-0.0654862 -0.417846 0)
(-0.00625805 -0.696633 0)
(0.137035 -0.632363 0)
(0.209226 -0.63763 0)
(0.275723 -0.662112 0)
(0.349572 -0.691736 0)
(0.437006 -0.735944 0)
(0.536983 -0.816248 0)
(0.656529 -0.974487 0)
(0.894223 -1.17728 0)
(1.0759 -1.13376 0)
(1.18242 -0.924015 0)
(1.29615 -0.73404 0)
(1.40491 -0.501906 0)
(1.45172 -0.219124 0)
(1.42816 0.10036 0)
(1.33032 0.543927 0)
(1.29756 0.370499 0)
(1.11845 0.0308671 0)
(1.07905 0.0262657 0)
(1.14708 0.165 0)
(1.23012 0.195468 0)
(1.386 0.170116 0)
(-0.00509538 -0.401373 0)
(0.0430623 -0.781084 0)
(0.115781 -0.707878 0)
(0.187816 -0.711266 0)
(0.25535 -0.7325 0)
(0.318022 -0.762261 0)
(0.375055 -0.807167 0)
(0.412124 -0.869464 0)
(0.470883 -1.15043 0)
(0.547421 -1.29337 0)
(0.476927 -1.14475 0)
(0.56632 -1.04966 0)
(0.785345 -0.922616 0)
(1.02309 -0.654248 0)
(1.20715 -0.301588 0)
(1.31874 0.073134 0)
(1.41235 0.465381 0)
(1.47775 0.481306 0)
(1.35225 0.201092 0)
(1.22462 0.0692687 0)
(1.20733 0.109914 0)
(1.26946 0.12897 0)
(1.32882 0.10531 0)
(0.0214215 -0.455002 0)
(0.0641965 -0.840884 0)
(0.113076 -0.7723 0)
(0.173704 -0.776321 0)
(0.230899 -0.792111 0)
(0.28294 -0.815729 0)
(0.32545 -0.844697 0)
(0.341724 -0.867611 0)
(0.301049 -1.18527 0)
(0.24013 -1.19733 0)
(0.191283 -1.15946 0)
(0.23498 -1.2041 0)
(0.340867 -1.15594 0)
(0.484089 -0.891356 0)
(0.66247 -0.497079 0)
(0.841461 -0.0475032 0)
(0.949976 0.34791 0)
(1.07602 0.456234 0)
(1.154 0.26704 0)
(1.17329 0.116414 0)
(1.20243 0.0791654 0)
(1.26922 0.0623148 0)
(1.33884 0.0523587 0)
(0.0300344 -0.539839 0)
(0.0728732 -0.876197 0)
(0.113335 -0.825132 0)
(0.164484 -0.830934 0)
(0.21356 -0.842675 0)
(0.258455 -0.859455 0)
(0.296415 -0.875439 0)
(0.324654 -0.883859 0)
(0.286722 -1.03096 0)
(0.155574 -1.17226 0)
(0.152408 -1.14355 0)
(0.108798 -1.18161 0)
(0.0148861 -1.15141 0)
(-0.044724 -0.921283 0)
(-0.0448227 -0.605316 0)
(0.062169 -0.176677 0)
(0.296286 0.177436 0)
(0.620835 0.222062 0)
(0.877591 0.126739 0)
(1.03708 0.0381486 0)
(1.15691 -0.00503448 0)
(1.26014 -0.0225062 0)
(1.34756 -0.0203976 0)
(0.0297314 -0.629873 0)
(0.0716664 -0.905218 0)
(0.110766 -0.871803 0)
(0.156038 -0.87834 0)
(0.200068 -0.887585 0)
(0.241482 -0.899839 0)
(0.279048 -0.911849 0)
(0.31506 -0.919209 0)
(0.358365 -0.938193 0)
(0.2451 -1.11799 0)
(0.230497 -1.11809 0)
(0.177283 -1.10117 0)
(0.0867899 -1.03574 0)
(-0.00585641 -0.881739 0)
(-0.0173606 -0.634668 0)
(0.0761632 -0.369212 0)
(0.306362 -0.166155 0)
(0.589387 -0.0909117 0)
(0.829749 -0.0989878 0)
(1.00472 -0.118594 0)
(1.14056 -0.127425 0)
(1.25771 -0.126287 0)
(1.36259 -0.112703 0)
(0.0253968 -0.712375 0)
(0.0664922 -0.935722 0)
(0.106164 -0.915114 0)
(0.148131 -0.921475 0)
(0.189132 -0.929201 0)
(0.228482 -0.93889 0)
(0.265765 -0.949704 0)
(0.304249 -0.959377 0)
(0.345691 -0.974313 0)
(0.364141 -1.03492 0)
(0.307037 -1.07842 0)
(0.258955 -1.04183 0)
(0.213617 -0.973219 0)
(0.190272 -0.852703 0)
(0.215092 -0.691828 0)
(0.315435 -0.521927 0)
(0.481326 -0.387456 0)
(0.670583 -0.310884 0)
(0.848386 -0.279017 0)
(1.00458 -0.266695 0)
(1.14297 -0.257284 0)
(1.26883 -0.243608 0)
(1.38591 -0.221322 0)
(0.0204678 -0.783158 0)
(0.0609897 -0.969695 0)
(0.100865 -0.956468 0)
(0.140912 -0.962115 0)
(0.179985 -0.968654 0)
(0.217649 -0.976574 0)
(0.253408 -0.985662 0)
(0.28709 -0.996015 0)
(0.318094 -1.00966 0)
(0.339692 -1.02977 0)
(0.326856 -1.03758 0)
(0.307543 -1.00944 0)
(0.297234 -0.953342 0)
(0.306966 -0.864722 0)
(0.35395 -0.753634 0)
(0.445129 -0.640734 0)
(0.574105 -0.545786 0)
(0.723062 -0.479105 0)
(0.874619 -0.437701 0)
(1.01987 -0.411541 0)
(1.15722 -0.390971 0)
(1.28806 -0.369262 0)
(1.41426 -0.341784 0)
(0.0165685 -0.843259 0)
(0.0564165 -1.00607 0)
(0.0958117 -0.996499 0)
(0.134618 -1.00122 0)
(0.172448 -1.00662 0)
(0.20898 -1.01295 0)
(0.24372 -1.01986 0)
(0.275866 -1.0272 0)
(0.303835 -1.03464 0)
(0.324018 -1.03975 0)
(0.3349 -1.03394 0)
(0.343922 -1.00952 0)
(0.359864 -0.964564 0)
(0.391719 -0.900319 0)
(0.448463 -0.823569 0)
(0.533587 -0.744908 0)
(0.643852 -0.6751 0)
(0.77094 -0.620338 0)
(0.905806 -0.580427 0)
(1.04227 -0.550888 0)
(1.17775 -0.52612 0)
(1.31197 -0.501157 0)
(1.44556 -0.471976 0)
(0.0139643 -0.895387 0)
(0.0528941 -1.04332 0)
(0.091467 -1.03547 0)
(0.129348 -1.03929 0)
(0.166395 -1.04366 0)
(0.202364 -1.04858 0)
(0.236892 -1.05358 0)
(0.269478 -1.05807 0)
(0.299315 -1.06103 0)
(0.325698 -1.0601 0)
(0.349363 -1.05111 0)
(0.374155 -1.02989 0)
(0.405919 -0.995479 0)
(0.450587 -0.949194 0)
(0.512985 -0.895281 0)
(0.595212 -0.839892 0)
(0.695893 -0.789037 0)
(0.810954 -0.746462 0)
(0.935557 -0.712697 0)
(1.06589 -0.685653 0)
(1.19989 -0.661986 0)
(1.33695 -0.638181 0)
(1.47725 -0.610918 0)
(0.0123427 -0.942093 0)
(0.0502173 -1.0805 0)
(0.0879 -1.07354 0)
(0.125046 -1.07664 0)
(0.161573 -1.0802 0)
(0.197371 -1.08409 0)
(0.232266 -1.08774 0)
(0.266064 -1.09049 0)
(0.298636 -1.09135 0)
(0.330237 -1.08861 0)
(0.362113 -1.07995 0)
(0.397082 -1.06336 0)
(0.438896 -1.03825 0)
(0.491265 -1.0057 0)
(0.557195 -0.96843 0)
(0.638092 -0.930153 0)
(0.733518 -0.894428 0)
(0.841606 -0.863609 0)
(0.959898 -0.838272 0)
(1.08626 -0.817337 0)
(1.2195 -0.798728 0)
(1.35935 -0.779957 0)
(1.50609 -0.758337 0)
(0.0113652 -0.985231 0)
(0.0481532 -1.11717 0)
(0.0849897 -1.11082 0)
(0.121493 -1.11341 0)
(0.157641 -1.11648 0)
(0.193438 -1.11978 0)
(0.228888 -1.12278 0)
(0.264068 -1.12487 0)
(0.299205 -1.12528 0)
(0.334895 -1.12292 0)
(0.372406 -1.11652 0)
(0.413794 -1.10502 0)
(0.461648 -1.08817 0)
(0.518533 -1.06675 0)
(0.586464 -1.04249 0)
(0.666503 -1.01776 0)
(0.758723 -0.994832 0)
(0.862455 -0.975272 0)
(0.976634 -0.959556 0)
(1.10034 -0.947097 0)
(1.23325 -0.936569 0)
(1.37567 -0.926216 0)
(1.52826 -0.913846 0)
(0.0107549 -1.02601 0)
(0.0464805 -1.15316 0)
(0.082517 -1.14736 0)
(0.118419 -1.14969 0)
(0.154216 -1.15255 0)
(0.190001 -1.15571 0)
(0.225921 -1.15869 0)
(0.26223 -1.16101 0)
(0.299339 -1.16211 0)
(0.337933 -1.16135 0)
(0.379117 -1.15805 0)
(0.424467 -1.1517 0)
(0.475861 -1.14226 0)
(0.535154 -1.13026 0)
(0.603873 -1.11681 0)
(0.682952 -1.1035 0)
(0.772756 -1.09192 0)
(0.873285 -1.08321 0)
(0.984353 -1.07781 0)
(1.10588 -1.07543 0)
(1.23828 -1.07531 0)
(1.38249 -1.07625 0)
(1.5397 -1.07633 0)
(0.0103472 -1.06513 0)
(0.0450468 -1.18838 0)
(0.0802796 -1.18319 0)
(0.115543 -1.18546 0)
(0.150926 -1.1884 0)
(0.186575 -1.19178 0)
(0.222728 -1.19524 0)
(0.259736 -1.19841 0)
(0.298089 -1.20093 0)
(0.33847 -1.20243 0)
(0.38182 -1.20261 0)
(0.42937 -1.20129 0)
(0.482541 -1.19852 0)
(0.542745 -1.19474 0)
(0.61124 -1.1907 0)
(0.688934 -1.18747 0)
(0.776378 -1.18627 0)
(0.873976 -1.18808 0)
(0.982066 -1.19335 0)
(1.10114 -1.20212 0)
(1.23219 -1.21412 0)
(1.37672 -1.22861 0)
(1.53647 -1.24396 0)
(0.0100463 -1.10296 0)
(0.0437068 -1.22276 0)
(0.0780988 -1.21824 0)
(0.112635 -1.22065 0)
(0.147453 -1.22388 0)
(0.182752 -1.22777 0)
(0.218817 -1.23205 0)
(0.25604 -1.23648 0)
(0.294923 -1.24084 0)
(0.336113 -1.24495 0)
(0.380416 -1.24873 0)
(0.42881 -1.2522 0)
(0.482409 -1.25552 0)
(0.542356 -1.25906 0)
(0.609734 -1.2634 0)
(0.685438 -1.26932 0)
(0.770162 -1.27779 0)
(0.864516 -1.28975 0)
(0.969129 -1.30579 0)
(1.0849 -1.3263 0)
(1.21313 -1.35147 0)
(1.35571 -1.38114 0)
(1.51507 -1.41405 0)
(0.00979419 -1.13966 0)
(0.0423521 -1.25622 0)
(0.07582 -1.25244 0)
(0.109501 -1.2551 0)
(0.143568 -1.25876 0)
(0.17825 -1.26336 0)
(0.213863 -1.26869 0)
(0.250804 -1.27462 0)
(0.289556 -1.28103 0)
(0.330711 -1.28789 0)
(0.374965 -1.29523 0)
(0.423115 -1.30321 0)
(0.476063 -1.31209 0)
(0.534775 -1.32223 0)
(0.600211 -1.33414 0)
(0.673244 -1.34845 0)
(0.75462 -1.36597 0)
(0.845039 -1.38764 0)
(0.94534 -1.4143 0)
(1.05654 -1.4466 0)
(1.17999 -1.48522 0)
(1.31775 -1.53077 0)
(1.47249 -1.58256 0)
(0.00953984 -1.17527 0)
(0.0408954 -1.28867 0)
(0.0733203 -1.28566 0)
(0.105994 -1.28864 0)
(0.139113 -1.29285 0)
(0.172917 -1.29825 0)
(0.207717 -1.30475 0)
(0.2439 -1.31228 0)
(0.28192 -1.32081 0)
(0.322307 -1.33039 0)
(0.365661 -1.34116 0)
(0.412658 -1.35334 0)
(0.464053 -1.36728 0)
(0.520671 -1.38341 0)
(0.58338 -1.40218 0)
(0.65299 -1.42417 0)
(0.730235 -1.4501 0)
(0.815913 -1.48096 0)
(0.910878 -1.51774 0)
(1.01606 -1.56134 0)
(1.13267 -1.61282 0)
(1.26233 -1.67352 0)
(1.40712 -1.74372 0)
(0.00926048 -1.20975 0)
(0.0392996 -1.31997 0)
(0.0705332 -1.31776 0)
(0.102022 -1.32112 0)
(0.133991 -1.3259 0)
(0.166666 -1.33216 0)
(0.200332 -1.33985 0)
(0.235341 -1.34896 0)
(0.272106 -1.35955 0)
(0.311095 -1.37172 0)
(0.352826 -1.38568 0)
(0.397886 -1.40172 0)
(0.44693 -1.42026 0)
(0.500669 -1.44175 0)
(0.559864 -1.46673 0)
(0.625255 -1.49571 0)
(0.69761 -1.52938 0)
(0.777697 -1.56873 0)
(0.86628 -1.6149 0)
(0.964235 -1.66884 0)
(1.07224 -1.73169 0)
(1.19114 -1.80517 0)
(1.32091 -1.88935 0)
(0.00894465 -1.24302 0)
(0.0375446 -1.34997 0)
(0.067434 -1.34858 0)
(0.0975597 -1.35233 0)
(0.12817 -1.35771 0)
(0.15947 -1.3648 0)
(0.191707 -1.37362 0)
(0.225183 -1.38422 0)
(0.260254 -1.3967 0)
(0.297319 -1.41124 0)
(0.336821 -1.4281 0)
(0.379274 -1.4476 0)
(0.42526 -1.47023 0)
(0.475381 -1.4965 0)
(0.53029 -1.52701 0)
(0.590723 -1.5623 0)
(0.657416 -1.60297 0)
(0.731039 -1.65005 0)
(0.812421 -1.70479 0)
(0.902177 -1.7679 0)
(1.00078 -1.84053 0)
(1.10855 -1.92359 0)
(1.2229 -2.0141 0)
(0.00857029 -1.27489 0)
(0.0356174 -1.37854 0)
(0.0640214 -1.37793 0)
(0.0926263 -1.38208 0)
(0.121686 -1.38804 0)
(0.151377 -1.3959 0)
(0.181906 -1.40574 0)
(0.213526 -1.41767 0)
(0.246526 -1.43183 0)
(0.28123 -1.44844 0)
(0.318006 -1.46781 0)
(0.357304 -1.49033 0)
(0.39962 -1.51651 0)
(0.445456 -1.54694 0)
(0.495399 -1.58229 0)
(0.550135 -1.62315 0)
(0.610346 -1.67007 0)
(0.676764 -1.72412 0)
(0.750075 -1.78656 0)
(0.830936 -1.85801 0)
(0.920247 -1.93952 0)
(1.01822 -2.0306 0)
(1.12271 -2.12453 0)
(0.00810409 -1.30514 0)
(0.0335215 -1.40556 0)
(0.0603128 -1.4057 0)
(0.0872591 -1.41021 0)
(0.114599 -1.41668 0)
(0.142474 -1.42522 0)
(0.17105 -1.43594 0)
(0.200531 -1.44899 0)
(0.231139 -1.46456 0)
(0.263122 -1.4829 0)
(0.296783 -1.50436 0)
(0.332487 -1.52939 0)
(0.370628 -1.55853 0)
(0.411628 -1.59244 0)
(0.455985 -1.63187 0)
(0.504279 -1.67751 0)
(0.557276 -1.7299 0)
(0.6156 -1.79005 0)
(0.679881 -1.85945 0)
(0.751234 -1.9387 0)
(0.830649 -2.02903 0)
(0.919622 -2.12929 0)
(1.01856 -2.23118 0)
(0.00754789 -1.33351 0)
(0.0312975 -1.43095 0)
(0.056363 -1.43176 0)
(0.0815241 -1.43657 0)
(0.106993 -1.44346 0)
(0.132872 -1.45254 0)
(0.159292 -1.46397 0)
(0.186406 -1.47791 0)
(0.214368 -1.49459 0)
(0.243357 -1.51428 0)
(0.273601 -1.53737 0)
(0.305371 -1.56434 0)
(0.338948 -1.5958 0)
(0.374653 -1.63244 0)
(0.412864 -1.6751 0)
(0.454101 -1.72463 0)
(0.499058 -1.78158 0)
(0.548305 -1.84691 0)
(0.602672 -1.92243 0)
(0.663081 -2.00887 0)
(0.731141 -2.10826 0)
(0.809232 -2.21941 0)
(0.899947 -2.33632 0)
(0.00693389 -1.35985 0)
(0.0289999 -1.45464 0)
(0.0522547 -1.456 0)
(0.0755253 -1.46104 0)
(0.0989973 -1.46823 0)
(0.122742 -1.47771 0)
(0.146851 -1.48964 0)
(0.171425 -1.50423 0)
(0.196551 -1.52169 0)
(0.222338 -1.54234 0)
(0.248937 -1.56657 0)
(0.27652 -1.5949 0)
(0.30524 -1.62796 0)
(0.335286 -1.6665 0)
(0.366938 -1.71144 0)
(0.400552 -1.76379 0)
(0.43666 -1.82425 0)
(0.476015 -1.89371 0)
(0.519138 -1.97418 0)
(0.567078 -2.0669 0)
(0.621518 -2.17456 0)
(0.684374 -2.29645 0)
(0.759182 -2.43025 0)
(0.00626406 -1.38403 0)
(0.0266813 -1.47658 0)
(0.0480725 -1.47835 0)
(0.0693799 -1.48352 0)
(0.090771 -1.49088 0)
(0.112292 -1.50059 0)
(0.133993 -1.51283 0)
(0.155915 -1.52778 0)
(0.178079 -1.54569 0)
(0.200521 -1.56688 0)
(0.223314 -1.59175 0)
(0.246529 -1.62081 0)
(0.27019 -1.65472 0)
(0.294349 -1.69428 0)
(0.319132 -1.74046 0)
(0.344666 -1.79441 0)
(0.371373 -1.85711 0)
(0.39987 -1.92933 0)
(0.4306 -2.01335 0)
(0.464612 -2.1108 0)
(0.502881 -2.22483 0)
(0.547449 -2.355 0)
(0.599325 -2.50024 0)
(0.00553016 -1.40599 0)
(0.0244548 -1.49676 0)
(0.0439242 -1.49876 0)
(0.0632165 -1.50393 0)
(0.082478 -1.51134 0)
(0.101733 -1.52113 0)
(0.120988 -1.53344 0)
(0.140221 -1.54848 0)
(0.159376 -1.5665 0)
(0.178415 -1.58779 0)
(0.197328 -1.61277 0)
(0.216084 -1.64193 0)
(0.234586 -1.67593 0)
(0.252742 -1.71557 0)
(0.270475 -1.76186 0)
(0.287704 -1.81606 0)
(0.304541 -1.87944 0)
(0.321459 -1.95286 0)
(0.33885 -2.03863 0)
(0.357348 -2.13887 0)
(0.378109 -2.25704 0)
(0.402427 -2.39267 0)
(0.431868 -2.54355 0)
(0.00485004 -1.42582 0)
(0.0225164 -1.51516 0)
(0.0399523 -1.51717 0)
(0.0571886 -1.52225 0)
(0.0743037 -1.52959 0)
(0.0912876 -1.53929 0)
(0.108107 -1.55149 0)
(0.124676 -1.56635 0)
(0.140864 -1.5841 0)
(0.156548 -1.60506 0)
(0.171627 -1.62962 0)
(0.185961 -1.65824 0)
(0.199335 -1.69155 0)
(0.211498 -1.73031 0)
(0.222179 -1.77553 0)
(0.231054 -1.82851 0)
(0.237835 -1.8908 0)
(0.242723 -1.96351 0)
(0.245865 -2.04888 0)
(0.24768 -2.14967 0)
(0.249112 -2.26967 0)
(0.252309 -2.40939 0)
(0.260018 -2.56614 0)
(0.00440142 -1.44398 0)
(0.0209612 -1.53165 0)
(0.0362243 -1.53354 0)
(0.0513839 -1.53846 0)
(0.0663783 -1.54563 0)
(0.0811322 -1.55512 0)
(0.0955641 -1.56701 0)
(0.109545 -1.58143 0)
(0.122884 -1.59859 0)
(0.13537 -1.6188 0)
(0.146802 -1.64241 0)
(0.15692 -1.66984 0)
(0.165378 -1.70166 0)
(0.171764 -1.73858 0)
(0.175603 -1.78154 0)
(0.1763 -1.8318 0)
(0.173195 -1.89102 0)
(0.165891 -1.96071 0)
(0.154215 -2.04306 0)
(0.138038 -2.14148 0)
(0.118135 -2.26044 0)
(0.0963675 -2.40302 0)
(0.079098 -2.56821 0)
(0.00417437 -1.46103 0)
(0.0196013 -1.54607 0)
(0.0326367 -1.54781 0)
(0.0457358 -1.55258 0)
(0.0586701 -1.55952 0)
(0.0712794 -1.56867 0)
(0.0834279 -1.58008 0)
(0.094953 -1.59386 0)
(0.105628 -1.61016 0)
(0.115171 -1.62925 0)
(0.123273 -1.65142 0)
(0.129563 -1.67705 0)
(0.133549 -1.70662 0)
(0.134639 -1.74075 0)
(0.132148 -1.78026 0)
(0.125194 -1.82627 0)
(0.112749 -1.88036 0)
(0.093675 -1.94438 0)
(0.0671528 -2.02044 0)
(0.0321554 -2.11249 0)
(-0.0117479 -2.22573 0)
(-0.0637007 -2.36661 0)
(-0.117144 -2.53855 0)
(0.00418215 -1.47716 0)
(0.0181014 -1.55843 0)
(0.0290446 -1.56004 0)
(0.0401858 -1.56467 0)
(0.0511562 -1.57134 0)
(0.0617406 -1.58006 0)
(0.0717693 -1.59087 0)
(0.0810464 -1.60382 0)
(0.0893151 -1.61905 0)
(0.0962414 -1.63673 0)
(0.101432 -1.65708 0)
(0.104415 -1.68039 0)
(0.104572 -1.70703 0)
(0.101129 -1.73748 0)
(0.0931697 -1.7724 0)
(0.0795576 -1.8127 0)
(0.0588293 -1.85968 0)
(0.0292152 -1.91515 0)
(-0.0111237 -1.98117 0)
(-0.0646463 -2.06152 0)
(-0.133523 -2.16181 0)
(-0.220903 -2.29138 0)
(-0.323013 -2.45798 0)
(0.0047352 -1.49265 0)
(0.0162457 -1.56887 0)
(0.0254199 -1.57035 0)
(0.0348085 -1.57485 0)
(0.0439677 -1.58122 0)
(0.052695 -1.58946 0)
(0.0608212 -1.59958 0)
(0.0681279 -1.61161 0)
(0.074326 -1.6256 0)
(0.0790449 -1.64166 0)
(0.0818372 -1.65991 0)
(0.0821543 -1.68051 0)
(0.0792789 -1.70368 0)
(0.0723003 -1.72974 0)
(0.0600902 -1.75911 0)
(0.0412471 -1.7924 0)
(0.0139712 -1.83051 0)
(-0.0241454 -1.87479 0)
(-0.0759015 -1.92692 0)
(-0.145165 -1.98976 0)
(-0.237019 -2.06809 0)
(-0.359067 -2.17097 0)
(-0.517122 -2.3075 0)
(0.00582905 -1.50823 0)
(0.0140503 -1.57742 0)
(0.0217956 -1.57889 0)
(0.0296218 -1.58327 0)
(0.0371289 -1.58935 0)
(0.0441893 -1.5971 0)
(0.0506514 -1.6065 0)
(0.0562902 -1.61754 0)
(0.0608033 -1.63023 0)
(0.0638036 -1.64456 0)
(0.0648144 -1.66054 0)
(0.0632455 -1.67821 0)
(0.0583255 -1.69761 0)
(0.0490574 -1.7188 0)
(0.0341832 -1.74194 0)
(0.0120395 -1.76727 0)
(-0.0194397 -1.79514 0)
(-0.0630014 -1.82621 0)
(-0.122377 -1.86134 0)
(-0.202276 -1.90173 0)
(-0.310035 -1.94989 0)
(-0.456881 -2.01057 0)
(-0.65859 -2.0884 0)
(0.00690523 -1.5247 0)
(0.0116863 -1.58403 0)
(0.0182022 -1.58575 0)
(0.0245285 -1.59003 0)
(0.0304884 -1.59584 0)
(0.03604 -1.60311 0)
(0.0410437 -1.61182 0)
(0.0452822 -1.62191 0)
(0.0484676 -1.63331 0)
(0.050225 -1.64593 0)
(0.0500839 -1.65967 0)
(0.0474592 -1.67439 0)
(0.0415932 -1.68994 0)
(0.031473 -1.70614 0)
(0.0157877 -1.7228 0)
(-0.00718394 -1.73967 0)
(-0.0397588 -1.75659 0)
(-0.0848385 -1.77332 0)
(-0.146482 -1.7896 0)
(-0.230069 -1.80491 0)
(-0.343098 -1.81867 0)
(-0.497313 -1.82925 0)
(-0.711794 -1.83349 0)
(0.00746036 -1.54211 0)
(0.00931299 -1.58909 0)
(0.0146397 -1.59124 0)
(0.0194729 -1.59547 0)
(0.0239688 -1.60104 0)
(0.0281438 -1.60791 0)
(0.0318614 -1.61602 0)
(0.0349238 -1.62525 0)
(0.0370791 -1.63549 0)
(0.0379926 -1.64657 0)
(0.0372403 -1.65825 0)
(0.0342953 -1.67026 0)
(0.0284767 -1.68225 0)
(0.0188721 -1.69377 0)
(0.0042281 -1.70426 0)
(-0.0170512 -1.713 0)
(-0.0471479 -1.71913 0)
(-0.0891004 -1.72159 0)
(-0.146716 -1.7189 0)
(-0.225386 -1.70896 0)
(-0.332129 -1.68866 0)
(-0.476245 -1.65178 0)
(-0.671811 -1.58715 0)
(0.00710458 -1.55867 0)
(0.00697312 -1.59204 0)
(0.0110506 -1.59473 0)
(0.01441 -1.59895 0)
(0.0175418 -1.60435 0)
(0.020469 -1.61089 0)
(0.0230551 -1.61849 0)
(0.0251366 -1.62702 0)
(0.0265127 -1.63628 0)
(0.0269137 -1.64604 0)
(0.0259965 -1.65598 0)
(0.0233391 -1.66569 0)
(0.0183926 -1.67464 0)
(0.0104272 -1.68216 0)
(-0.00157309 -1.68734 0)
(-0.0189599 -1.68902 0)
(-0.0435231 -1.68572 0)
(-0.0778128 -1.67553 0)
(-0.125237 -1.65589 0)
(-0.190231 -1.62329 0)
(-0.278976 -1.57284 0)
(-0.398758 -1.49698 0)
(-0.55687 -1.38094 0)
(0.00525085 -1.57718 0)
(0.00468906 -1.59426 0)
(0.00732799 -1.59751 0)
(0.00927163 -1.60177 0)
(0.0111638 -1.60709 0)
(0.0129582 -1.61344 0)
(0.0145399 -1.62069 0)
(0.0157945 -1.62872 0)
(0.016585 -1.63728 0)
(0.016728 -1.6461 0)
(0.0159894 -1.65478 0)
(0.0140847 -1.6628 0)
(0.0106604 -1.66953 0)
(0.00520458 -1.67409 0)
(-0.00293883 -1.67531 0)
(-0.0146903 -1.67166 0)
(-0.0313911 -1.66116 0)
(-0.0546698 -1.64123 0)
(-0.0869701 -1.60838 0)
(-0.131515 -1.55793 0)
(-0.192473 -1.48363 0)
(-0.275544 -1.37706 0)
(-0.385983 -1.22569 0)
(0.00156031 -1.58341 0)
(0.00229219 -1.59797 0)
(0.00323771 -1.60172 0)
(0.00394847 -1.60616 0)
(0.00471098 -1.61154 0)
(0.00544353 -1.61786 0)