# vtk DataFile Version 2.0
gauge_2
ASCII
DATASET POLYDATA
POINTS 85 double
0.2 0.0329993 0.005
0.2 0.0359992 0.005
0.2 0.0389992 0.005
0.2 0.0419991 0.005
0.2 0.044999 0.005
0.2 0.047999 0.005
0.2 0.0543799 0.005
0.2 0.0607609 0.005
0.2 0.0671419 0.005
0.2 0.0735228 0.005
0.2 0.0799038 0.005
0.2 0.0862847 0.005
0.2 0.0926657 0.005
0.2 0.0990467 0.005
0.2 0.105428 0.005
0.2 0.111809 0.005
0.2 0.11819 0.005
0.2 0.124571 0.005
0.2 0.130952 0.005
0.2 0.137332 0.005
0.2 0.143713 0.005
0.2 0.150094 0.005
0.2 0.156475 0.005
0.2 0.162856 0.005
0.2 0.169237 0.005
0.2 0.175618 0.005
0.2 0.181999 0.005
0.2 0.18838 0.005
0.2 0.194761 0.005
0.2 0.201142 0.005
0.2 0.207523 0.005
0.2 0.213904 0.005
0.2 0.220285 0.005
0.2 0.226666 0.005
0.2 0.233047 0.005
0.2 0.239428 0.005
0.2 0.245809 0.005
0.2 0.25219 0.005
0.2 0.258571 0.005
0.2 0.264952 0.005
0.2 0.271333 0.005
0.2 0.277714 0.005
0.2 0.284095 0.005
0.2 0.290476 0.005
0.2 0.296857 0.005
0.2 0.303238 0.005
0.2 0.309619 0.005
0.2 0.315999 0.005
0.2 0.32238 0.005
0.2 0.328761 0.005
0.2 0.335142 0.005
0.2 0.341523 0.005
0.2 0.347904 0.005
0.2 0.354285 0.005
0.2 0.360666 0.005
0.2 0.367047 0.005
0.2 0.373428 0.005
0.2 0.379809 0.005
0.2 0.38619 0.005
0.2 0.392571 0.005
0.2 0.398952 0.005
0.2 0.405333 0.005
0.2 0.411714 0.005
0.2 0.418095 0.005
0.2 0.424476 0.005
0.2 0.430857 0.005
0.2 0.437238 0.005
0.2 0.443619 0.005
0.2 0.45 0.005
0.2 0.456381 0.005
0.2 0.462762 0.005
0.2 0.469143 0.005
0.2 0.475524 0.005
0.2 0.481905 0.005
0.2 0.488286 0.005
0.2 0.494666 0.005
0.2 0.501047 0.005
0.2 0.507428 0.005
0.2 0.513809 0.005
0.2 0.52019 0.005
0.2 0.526571 0.005
0.2 0.532952 0.005
0.2 0.539333 0.005
0.2 0.545714 0.005
0.2 0.552095 0.005
POINT_DATA 85
 FIELD attributes 1
alpha.water 1 85 float
1 1 1 0.999998 0.980318 0.798473 0.393285 0.564314 0.865255 0.663544 0.242122 0.0186412 0.00760458 0.000250676 0.000203144 0.000203055 0.000203354 0.00058847 0.0395997 0.117872 0.142383 0.0648016 0.00127173 0.000189227 0.000190542 0.000190508 0.00460736 0.0170311 0.0253371 0.025455 0.0243909 0.022999 0.0214032 0.0150128 0.0078571 0.00461983 0.0031947 0.00257346 0.00104642 4.60223e-05 1.56939e-07 4.06242e-10 2.64011e-10 2.45499e-10 1.77169e-10 1.24223e-10 1.07705e-10 1.07199e-10 9.55699e-11 7.1622e-11 6.32734e-11 6.4446e-11 8.45222e-11 9.92387e-09 8.38614e-07 2.14599e-06 1.75293e-06 9.2449e-07 0.000189496 0.00288396 0.00611251 0.00667891 0.0038395 0.000578147 1.23787e-11 8.85848e-11 1.81633e-10 1.16115e-10 2.60058e-11 1.09809e-11 5.5352e-12 3.36249e-12 2.47219e-12 2.00199e-12 1.64279e-12 1.63457e-12 1.48126e-12 1.2164e-12 8.55535e-13 2.17135e-13 1.49381e-14 2.75719e-15 7.88025e-16 1.04378e-16 1.49946e-17
