/*--------------------------------*- C++ -*----------------------------------*\
| =========                 |                                                 |
| \\      /  F ield         | OpenFOAM: The Open Source CFD Toolbox           |
|  \\    /   O peration     | Version:  v1912                                 |
|   \\  /    A nd           | Website:  www.openfoam.com                      |
|    \\/     M anipulation  |                                                 |
\*---------------------------------------------------------------------------*/
FoamFile
{
    version     2.0;
    format      ascii;
    class       surfaceScalarField;
    location    "0.9";
    object      alphaPhi0.water;
}
// * * * * * * * * * * * * * * * * * * * * * * * * * * * * * * * * * * * * * //

dimensions      [0 3 -1 0 0 0 0];
oriented        oriented;


internalField   nonuniform List<scalar> 
17936
(
1.61655e-07
1.23105e-06
-1.39271e-06
7.72365e-08
-4.14617e-07
3.3738e-07
1.33868e-06
-2.81997e-06
1.48129e-06
4.15351e-06
-4.95418e-06
8.00677e-07
5.36974e-06
-5.61367e-06
2.43933e-07
5.84638e-06
-6.17265e-06
3.26271e-07
6.60706e-06
-7.08148e-06
4.74424e-07
7.52511e-06
-7.90457e-06
3.79463e-07
8.19755e-06
-8.29567e-06
9.81166e-08
8.01419e-06
-7.27198e-06
-7.37925e-07
6.21924e-06
-5.05973e-06
-1.1131e-06
4.05524e-06
-3.59631e-06
-3.68551e-07
4.11801e-06
-5.23711e-06
1.08659e-06
5.73613e-06
-4.79399e-06
-9.42144e-07
3.16974e-06
-1.61363e-06
-1.55611e-06
2.61309e-07
1.17114e-06
-1.43246e-06
-3.10674e-06
5.96709e-06
-2.86017e-06
-7.96882e-06
6.07828e-06
1.8888e-06
-6.8905e-07
-7.1187e-06
7.81167e-06
1.24436e-05
-1.14486e-05
-1.00377e-06
8.07715e-06
-5.64145e-06
-2.43571e-06
3.85615e-06
-2.40851e-06
-1.44764e-06
1.01746e-06
1.92234e-07
-1.20968e-06
-3.34007e-06
5.58835e-06
-2.24828e-06
3.88449e-06
-5.35201e-06
-1.64875e-06
3.11627e-06
6.3454e-06
-6.63433e-06
-2.25351e-06
2.54244e-06
6.5646e-06
-6.72268e-06
-1.16115e-06
1.31923e-06
7.33191e-06
-8.21644e-06
-1.29903e-06
2.18356e-06
9.08509e-06
-9.7433e-06
-1.1674e-06
1.82561e-06
1.01331e-05
-1.02861e-05
-7.97009e-07
9.49951e-07
1.02506e-05
-1.0059e-05
-2.92069e-07
1.00515e-07
9.76079e-06
-9.44816e-06
4.13978e-07
-7.26599e-07
9.21968e-06
-9.04471e-06
1.03955e-06
-1.14468e-06
8.68287e-06
-8.49588e-06
5.3008e-07
-7.24524e-07
7.95614e-06
-6.83339e-06
6.47983e-07
-1.77819e-06
5.17085e-06
-3.03039e-06
1.09631e-06
-3.27267e-06
1.04146e-06
3.20415e-07
2.86793e-06
-4.2298e-06
-1.07955e-06
1.26728e-06
2.18912e-06
-2.37677e-06
-7.54833e-07
-5.54657e-07
1.4205e-06
-1.11013e-07
2.27269e-06
-3.47362e-06
3.95782e-06
-2.7366e-06
4.04646e-06
-5.39767e-06
-2.54072e-06
3.89304e-06
8.63388e-06
-9.58539e-06
-1.44031e-05
1.53167e-05
8.03096e-06
-5.99615e-06
3.8582e-06
-6.79025e-06
4.22216e-06
-3.15224e-06
4.33507e-06
-5.405e-06
2.43459e-06
-1.82161e-06
2.34404e-06
-2.95662e-06
1.21223e-06
-6.80532e-07
2.12286e-06
-2.6546e-06
-7.76363e-06
9.85612e-06
-2.09249e-06
4.00798e-06
-5.91073e-06
-4.67555e-06
6.57829e-06
7.57684e-06
-8.34096e-06
-3.03837e-06
3.80249e-06
8.12957e-06
-7.62285e-06
-1.14909e-06
6.42375e-07
7.4318e-06
-7.60739e-06
-2.64093e-06
2.81652e-06
7.96999e-06
-8.41961e-06
-2.32936e-06
2.77899e-06
8.89602e-06
-9.31402e-06
-1.24299e-06
1.66099e-06
9.59005e-06
-9.66903e-06
-7.68999e-08
1.55882e-07
9.5271e-06
-9.16065e-06
1.0517e-06
-1.41816e-06
8.56131e-06
-7.69536e-06
1.64059e-06
-2.50581e-06
6.50487e-06
-4.98784e-06
1.83489e-06
-3.35192e-06
3.29591e-06
-1.62699e-06
3.44325e-06
-5.11217e-06
1.28078e-07
1.13858e-06
4.99881e-06
-6.26546e-06
-2.03815e-06
2.53952e-06
4.9731e-06
-5.47446e-06
-2.74976e-06
2.77718e-06
2.48596e-06
-2.51347e-06
-2.72812e-06
2.50727e-06
-9.68153e-07
1.18901e-06
-1.4449e-06
-1.34053e-06
-3.83874e-07
3.2012e-06
4.76147e-06
-6.75068e-06
-5.21704e-06
6.94904e-06
5.67257e-06
-2.46271e-06
-1.27896e-05
9.5597e-06
2.20659e-07
-6.9774e-07
8.4387e-06
-7.95787e-06
1.61736e-06
-2.12094e-06
5.61474e-06
-5.11116e-06
2.22177e-06
-1.96595e-06
3.37129e-06
-3.62711e-06
1.45701e-06
-7.65073e-07
3.20899e-06
-3.90095e-06
-1.19144e-05
1.39718e-05
-2.05742e-06
4.26415e-06
-7.01634e-06
-8.94508e-06
1.16973e-05
9.31619e-06
-1.01236e-05
-4.65919e-06
5.46664e-06
9.62958e-06
-8.83875e-06
8.61674e-08
-8.77e-07
8.40296e-06
-8.41747e-06
-2.86852e-06
2.88303e-06
8.72126e-06
-9.14793e-06
-3.21183e-06
3.6385e-06
9.59305e-06
-9.96456e-06
-2.08491e-06
2.45642e-06
1.01906e-05
-1.02361e-05
-2.3959e-07
2.8514e-07
1.00802e-05
-9.69064e-06
1.79334e-06
-2.18285e-06
9.02249e-06
-8.03241e-06
3.4897e-06
-4.47978e-06
6.70809e-06
-5.11862e-06
4.9666e-06
-6.55608e-06
3.41647e-06
-1.75308e-06
6.73687e-06
-8.40027e-06
2.17921e-07
1.13642e-06
7.48782e-06
-8.84216e-06
-2.23018e-06
2.97536e-06
6.07001e-06
-6.81519e-06
-3.34686e-06
3.37055e-06
2.53216e-06
-2.55585e-06
-3.16353e-06
2.93811e-06
-1.26333e-06
1.48876e-06
-2.88243e-06
2.67229e-06
-4.49845e-06
4.70859e-06
-1.98199e-06
1.61126e-06
-8.43881e-06
9.98403e-06
-2.92982e-06
4.56744e-06
-6.81158e-06
6.00657e-06
-3.90181e-06
1.34648e-06
6.5472e-06
-3.99187e-06
8.086e-07
-2.034e-06
4.12783e-06
-2.90242e-06
2.49399e-06
-2.37695e-06
3.78312e-06
-3.90017e-06
1.83834e-06
-8.87767e-07
4.72665e-06
-5.67722e-06
-1.60226e-05
1.80306e-05
-2.00798e-06
4.53134e-06
-7.46468e-06
-1.4643e-05
1.75764e-05
9.58895e-06
-1.01624e-05
-6.15919e-06
6.7326e-06
9.72062e-06
-9.19387e-06
1.5851e-06
-2.11185e-06
9.02011e-06
-9.16446e-06
-2.92572e-06
3.07007e-06
9.52858e-06
-9.9643e-06
-4.06492e-06
4.50064e-06
1.0357e-05
-1.06494e-05
-2.77659e-06
3.069e-06
1.08087e-05
-1.08109e-05
-2.98807e-07
3.00992e-07
1.06281e-05
-1.022e-05
2.58776e-06
-2.99587e-06
9.53756e-06
-8.53671e-06
5.47448e-06
-6.47533e-06
7.19845e-06
-5.56636e-06
8.14868e-06
-9.78077e-06
3.75122e-06
-1.86815e-06
1.01461e-05
-1.20292e-05
1.26402e-08
1.70614e-06
1.03596e-05
-1.20784e-05
-3.16561e-06
4.18334e-06
7.69452e-06
-8.71226e-06
-4.62528e-06
4.51916e-06
2.54916e-06
-2.44304e-06
-4.0887e-06
3.66277e-06
-1.804e-06
2.22993e-06
-3.437e-06
3.471e-06
-4.66405e-06
4.63005e-06
-3.93037e-06
5.06203e-06
-8.99571e-06
7.86405e-06
-6.19057e-06
5.76857e-06
-6.0622e-06
6.48426e-06
-3.62704e-06
9.8474e-07
1.10855e-06
1.53375e-06
1.11859e-06
-2.45284e-06
1.60018e-06
-2.65933e-07
3.0034e-06
-2.85473e-06
4.02177e-06
-4.17044e-06
2.08492e-06
-8.22506e-07
6.76342e-06
-8.02583e-06
-1.9945e-05
2.17174e-05
-1.77241e-06
4.19709e-06
-6.67853e-06
-2.03359e-05
2.28174e-05
8.36782e-06
-8.83439e-06
-7.22587e-06
7.69271e-06
8.58107e-06
-8.55582e-06
2.40101e-06
-2.42691e-06
9.0352e-06
-9.59352e-06
-3.39181e-06
3.95012e-06
1.01214e-05
-1.06214e-05
-4.96039e-06
5.46042e-06
1.10356e-05
-1.1332e-05
-3.35594e-06
3.65238e-06
1.15007e-05
-1.15251e-05
-3.07779e-07
3.32224e-07
1.13771e-05
-1.10082e-05
3.39226e-06
-3.76112e-06
1.03527e-05
-9.33387e-06
7.48052e-06
-8.49931e-06
7.87159e-06
-5.96655e-06
1.15137e-05
-1.34187e-05
3.78383e-06
-1.50109e-06
1.41294e-05
-1.64122e-05
-7.76768e-07
2.99878e-06
1.40658e-05
-1.62878e-05
-5.0269e-06
6.50617e-06
9.89874e-06
-1.1378e-05
-7.01707e-06
6.52555e-06
2.15366e-06
-1.66214e-06
-5.57882e-06
4.70571e-06
-2.86716e-06
3.74027e-06
-4.22903e-06
4.18043e-06
-4.61072e-06
4.65931e-06
-4.49141e-06
5.05503e-06
-7.04891e-06
6.4853e-06
-5.38356e-06
4.69173e-06
-7.05869e-06
7.75052e-06
-2.83734e-06
3.88125e-07
-3.99786e-06
6.44708e-06
1.87594e-06
-3.45492e-06
-1.16107e-06
2.74005e-06
4.14979e-06
-3.92351e-06
4.35888e-06
-4.58516e-06
2.74358e-06
-8.51618e-07
9.5436e-06
-1.14356e-05
-2.3312e-05
2.47139e-05
-1.40193e-06
3.31327e-06
-5.07293e-06
-2.49584e-05
2.67181e-05
6.36795e-06
-6.85312e-06
-8.16189e-06
8.65023e-06
6.80625e-06
-7.41229e-06
2.15336e-06
-1.53039e-06
8.75802e-06
-9.84443e-06
-4.77664e-06
5.86305e-06
1.06229e-05
-1.12384e-05
-6.01399e-06
6.62942e-06
1.1717e-05
-1.20623e-05
-3.96867e-06
4.31399e-06
1.22865e-05
-1.2385e-05
-3.87657e-07
4.86147e-07
1.233e-05
-1.20525e-05
4.08949e-06
-4.36702e-06
1.14435e-05
-1.03796e-05
9.54668e-06
-1.06106e-05
8.76771e-06
-6.82176e-06
1.54673e-05
-1.74132e-05
5.16708e-06
-3.97966e-06
1.85528e-05
-1.97375e-05
2.92001e-06
-1.35664e-06
1.85114e-05
-2.0065e-05
-1.03029e-06
3.86038e-06
1.34216e-05
-1.62486e-05
-6.16249e-06
6.94651e-06
1.2781e-06
-2.0368e-06
-6.47815e-06
5.70436e-06
-4.75875e-06
5.53254e-06
-5.39747e-06
5.589e-06
-4.70869e-06
4.51717e-06
-6.06799e-06
6.53542e-06
-6.08502e-06
5.61759e-06
-6.52223e-06
5.50511e-06
-8.61285e-06
9.62996e-06
-3.34266e-06
4.21659e-07
-9.01642e-06
1.19374e-05
2.48927e-06
-4.60365e-06
-4.52927e-06
6.64365e-06
5.57363e-06
-5.22428e-06
4.84057e-06
-5.18992e-06
3.03068e-06
-3.15708e-08
1.38619e-05
-1.6861e-05
-2.59255e-05
2.69686e-05
-1.04314e-06
2.255e-06
-3.17746e-06
-2.80644e-05
2.89868e-05
4.02262e-06
-4.59906e-06
-9.16285e-06
9.73929e-06
5.03937e-06
-6.50441e-06
4.79265e-07
9.8713e-07
8.63925e-06
-1.01446e-05
-7.18432e-06
8.68964e-06
1.11239e-05
-1.18647e-05
-7.30902e-06
8.0499e-06
1.24232e-05
-1.28424e-05
-4.69538e-06
5.11455e-06
1.31497e-05
-1.33585e-05
-6.34952e-07
8.43743e-07
1.34514e-05
-1.33004e-05
4.58027e-06
-4.73125e-06
1.27241e-05
-1.1814e-05
1.1641e-05
-1.25511e-05
1.12178e-05
-1.18227e-05
1.86132e-05
-1.77185e-05
1.03667e-05
-7.11411e-06
1.62834e-05
-2.63513e-06
5.50826e-06
-5.13755e-06
1.10396e-05
-6.08415e-06
3.68433e-06
-7.7681e-06
1.17175e-05
-1.23602e-05
1.22335e-05
-8.88448e-06
5.3361e-06
-1.15408e-05
3.82943e-06
1.22065e-07
-4.8756e-06
8.30876e-07
-2.56716e-06
4.56479e-06
-3.68202e-06
1.68439e-06
-6.32398e-06
7.85884e-06
-4.63289e-06
3.09804e-06
-8.77676e-06
8.64398e-06
-1.05597e-05
1.06924e-05
-6.98907e-06
3.6452e-06
-1.54123e-05
1.87561e-05
4.21594e-07
-3.88891e-06
-9.33552e-06
1.28028e-05
5.42387e-06
-4.66435e-06
5.7966e-06
-6.55611e-06
1.88522e-06
-5.09709e-07
2.02048e-05
-2.15801e-05
7.09798e-06
-1.24019e-05
5.31556e-06
-6.91559e-06
2.55989e-06
4.30497e-06
1.029e-05
-2.58359e-05
1.58401e-05
3.50284e-05
-3.43648e-05
-6.83274e-07
2.7648e-05
-1.8997e-05
-8.72007e-06
1.11143e-05
-4.27704e-06
-6.87491e-06
-3.08489e-07
-1.36715e-06
1.68199e-06
1.02599e-05
-1.78595e-05
7.52029e-06
1.86976e-05
-1.30602e-05
-5.63376e-06
7.5019e-06
-7.11369e-06
-3.83905e-07
1.06505e-05
-4.9724e-06
2.5446e-06
4.91582e-06
-2.95855e-06
-2.02811e-06
-2.00404e-06
1.60157e-05
-1.21149e-05
-2.594e-05
2.85376e-05
-4.64725e-06
-2.35924e-05
1.13939e-05
8.47953e-06
-1.08631e-06
-8.52989e-06
8.61115e-06
9.55786e-06
-4.51166e-06
-5.0458e-06
4.96811e-06
-1.23075e-05
7.52495e-06
1.21822e-05
-6.5657e-06
-6.80841e-06
1.55513e-05
-1.59493e-05
3.68451e-07
2.8549e-06
-1.97563e-05
-1.74846e-05
3.46999e-05
3.41163e-05
-3.57563e-05
-2.63778e-05
2.80326e-05
2.94478e-05
-2.26189e-05
5.69755e-06
-1.03206e-05
1.83976e-05
-1.28644e-05
1.18353e-05
-1.25488e-05
1.05031e-05
-1.0707e-05
1.20486e-05
-7.00001e-06
1.14803e-05
-9.582e-06
-1.02771e-06
-8.44863e-07
1.30901e-05
-1.85947e-05
-1.48679e-05
2.04579e-05
1.98129e-05
-2.0846e-05
8.88473e-06
-7.84348e-06
1.76489e-05
-5.99139e-06
-2.72388e-06
4.56628e-07
3.34701e-06
-6.96706e-07
-6.84719e-07
-2.02405e-06
-2.44146e-06
1.36436e-05
5.69823e-06
-2.36406e-05
-2.60693e-05
3.07457e-05
2.31717e-05
-2.78747e-05
-3.24884e-05
3.14743e-05
6.31426e-06
-5.99441e-06
-3.06176e-05
3.23406e-05
-1.36007e-05
1.12376e-05
-2.5399e-05
1.10106e-05
-1.99585e-05
3.33142e-05
1.48947e-06
-8.95028e-06
5.55912e-06
1.90268e-06
9.83135e-06
-1.52331e-05
-1.41368e-05
1.75266e-05
1.6993e-05
-8.64997e-06
1.87405e-05
-2.70805e-05
1.42048e-05
-1.05833e-05
-3.64996e-06
9.0171e-06
-1.85696e-05
-4.88765e-05
5.84093e-05
1.43681e-05
-2.21785e-06
-1.69096e-05
3.14057e-06
1.10201e-06
-1.98574e-06
2.41956e-06
-1.65599e-06
2.21003e-06
-6.31757e-06
7.59196e-06
-1.47543e-06
6.6601e-06
-7.11779e-06
7.37194e-06
-7.37825e-06
1.00098e-05
-1.83691e-05
1.00078e-06
-9.26337e-07
1.67388e-05
-1.75472e-05
-2.36205e-05
2.44335e-05
2.15671e-05
-1.43801e-05
4.64446e-06
-2.05378e-06
4.64612e-06
-2.41894e-06
5.08606e-07
-2.76695e-06
-5.0022e-07
4.17442e-06
4.60834e-06
-1.03626e-05
-1.71718e-05
2.33746e-05
4.00052e-05
-4.61953e-05
-2.36723e-05
2.27649e-05
2.82611e-05
-2.73447e-05
-1.13966e-05
2.30446e-06
3.1926e-06
-1.72754e-06
-2.51411e-06
4.09679e-06
-2.49871e-06
9.16989e-07
-2.37302e-05
2.17635e-05
-3.15027e-05
2.62143e-05
-1.12203e-05
-2.25748e-06
-1.37671e-05
2.79178e-05
9.4672e-06
-1.43943e-05
-2.03955e-05
2.54535e-05
7.99815e-06
-8.91666e-06
2.72471e-05
-1.98595e-05
5.81544e-06
-5.76856e-07
-5.24964e-06
5.84978e-06
-4.92481e-06
-6.41901e-05
6.26832e-05
1.35081e-07
-3.15091e-07
-1.72847e-06
1.86831e-06
8.56173e-07
-1.40284e-06
1.54678e-06
-1.04029e-06
9.4055e-06
-1.15786e-05
-3.9102e-07
3.30647e-06
1.58826e-05
-1.26463e-05
7.22423e-06
-8.05794e-06
3.09139e-05
-2.96959e-05
1.79584e-06
-3.012e-06
2.74285e-05
-2.62635e-05
-2.3868e-05
2.27057e-05
2.80994e-05
-1.70509e-05
9.86936e-07
-3.06673e-06
8.03177e-06
-7.20098e-07
6.95784e-06
-3.747e-05
-6.76751e-06
1.32611e-05
3.74694e-05
-4.39596e-05
-1.73055e-05
1.76127e-05
4.83911e-05
-4.86929e-05
-1.87991e-05
1.13911e-05
2.70976e-05
-2.65295e-05
-1.91267e-06
1.74444e-06
1.31258e-06
-1.14194e-06
-1.96447e-06
2.09075e-06
-1.06661e-06
9.44796e-07
-3.33863e-06
2.18393e-05
-1.80712e-05
1.17122e-05
-1.72374e-05
6.12426e-06
-4.2914e-05
5.30561e-05
2.52002e-07
-8.42891e-07
-2.37867e-05
1.63517e-05
1.44601e-06
-2.23292e-06
2.4157e-05
-3.31149e-05
-3.9272e-06
6.36162e-06
-2.42832e-06
1.23754e-06
8.20806e-06
-5.24293e-05
3.62621e-05
-2.13618e-06
3.89499e-06
-2.76179e-06
1.19429e-05
-1.38438e-05
1.2256e-05
1.90562e-06
-1.35773e-06
-1.39063e-07
-1.22198e-05
-6.89574e-06
1.80404e-05
1.007e-05
-1.6835e-05
1.92207e-06
1.06789e-06
3.76126e-05
-4.60728e-05
3.67278e-06
-3.10021e-06
4.31139e-05
-3.30686e-05
-2.02706e-05
1.26555e-05
2.3462e-05
-1.57918e-05
1.08023e-05
-2.19938e-05
3.59807e-06
4.43186e-06
4.83302e-05
-5.63539e-05
-7.1086e-06
6.47682e-06
4.69403e-05
-4.63053e-05
-6.41205e-06
1.22583e-05
5.07587e-05
-5.6553e-05
-5.12483e-06
1.68252e-06
1.06529e-05
-2.42699e-06
-9.83464e-07
7.88035e-07
1.08228e-06
-8.87819e-07
-9.33957e-07
1.29927e-06
-7.06258e-07
3.47944e-07
-1.43641e-06
1.48239e-05
-1.18677e-05
1.03139e-05
-1.54514e-05
5.31389e-06
-6.17883e-05
4.18649e-05
-3.63073e-06
3.86113e-06
-1.62768e-05
1.60009e-05
-2.86208e-06
3.34517e-06
3.92934e-05
-2.96557e-05
-5.39556e-06
-6.64325e-07
5.03134e-06
-1.05929e-05
2.13326e-05
-2.56834e-05
1.44913e-05
-2.71916e-05
2.68303e-05
-2.39211e-05
1.68586e-05
-2.3967e-05
1.77541e-05
-4.3547e-06
1.15329e-05
-1.01175e-06
-7.19157e-06
-1.30273e-05
1.72144e-05
9.91616e-06
-2.09841e-05
-4.70439e-06
1.19972e-05
4.76348e-05
-4.76401e-05
2.34092e-06
-3.03742e-06
3.89565e-05
-2.12504e-05
-2.39933e-06
-3.76917e-06
5.71969e-06
-1.76626e-06
1.93096e-05
-9.00155e-06
-2.09906e-06
3.08929e-06
5.72731e-05
-6.3062e-05
1.55623e-06
-8.43869e-06
4.28065e-05
-3.59092e-05
7.99024e-06
-1.50108e-06
3.73288e-05
-2.4611e-05
1.56203e-07
-4.13259e-07
1.95647e-06
-1.69959e-06
7.29585e-07
-7.31432e-07
6.3474e-07
-6.33452e-07
4.30575e-07
2.95494e-07
2.01656e-07
-9.23065e-07
-9.88147e-07
2.65843e-06
-5.55704e-06
3.89337e-06
-8.3557e-06
4.16569e-06
-3.64313e-05
5.05911e-05
-4.02407e-06
4.4948e-06
-3.13188e-05
2.96045e-05
-4.24554e-06
3.93579e-06
2.10039e-05
-2.10739e-05
1.48893e-05
-3.194e-05
1.70743e-05
-2.52209e-05
3.37594e-05
-2.98564e-06
-4.79753e-06
-3.63978e-05
3.24061e-05
-1.28538e-05
1.68939e-05
-2.43916e-05
1.28204e-05
-1.86181e-05
3.21105e-05
-3.41024e-06
-1.61563e-06
-2.18672e-05
2.52236e-05
1.20654e-05
-1.81826e-05
-2.96874e-05
3.25499e-05
1.21477e-05
-4.79868e-06
2.54128e-06
-8.75223e-07
4.49452e-06
-3.49854e-06
1.55156e-06
-2.60479e-06
1.68932e-06
2.35954e-07
7.65099e-06
-9.64861e-06
-3.21108e-06
-2.3729e-06
6.00436e-05
-5.45674e-05
1.19108e-05
-1.65436e-05
2.62441e-05
-1.33524e-05
2.53753e-05
-2.50971e-05
3.19932e-05
-5.0161e-05
3.9377e-06
-1.8934e-06
1.60408e-06
-3.64862e-06
1.76325e-06
-1.50705e-06
8.09666e-07
-1.06586e-06
1.30386e-06
-9.67538e-07
1.58468e-06
-1.921e-06
4.66875e-07
-8.66045e-07
-3.84196e-06
4.24696e-06
1.10526e-06
1.49479e-06
-6.09516e-05
8.02275e-05
-2.969e-06
4.0909e-06
-2.71396e-05
1.97433e-05
-4.88968e-06
5.40125e-06
2.0916e-05
-1.80817e-05
-6.22266e-05
4.84999e-05
1.3757e-05
-2.34121e-05
2.31617e-05
1.00769e-05
-9.78726e-06
-2.041e-05
1.97481e-05
-1.53714e-05
8.31224e-06
-2.44722e-05
2.44141e-05
-4.24868e-05
4.213e-05
-1.19767e-05
3.68471e-07
-2.81929e-05
3.81987e-05
-2.41931e-06
-1.01363e-06
-6.34328e-06
7.95304e-07
4.42511e-06
-5.78411e-06
1.80772e-08
3.49131e-07
2.6959e-06
-1.52645e-06
3.44917e-06
-4.6959e-06
6.17591e-07
4.08936e-06
1.67547e-05
-5.54759e-05
1.46978e-06
-9.56074e-06
4.73067e-05
-3.92211e-05
1.73187e-05
-1.09327e-05
3.16466e-06
2.02231e-06
1.88891e-05
-2.60294e-05
4.90151e-05
-4.95698e-05
2.21582e-05
-3.92368e-06
6.46756e-06
-2.18353e-05
1.25648e-06
-8.94849e-07
1.39648e-06
-1.76016e-06
9.76553e-07
-1.22735e-06
1.87954e-06
-1.6098e-06
3.57924e-06
-7.02881e-06
-1.29514e-05
3.8705e-05
2.92584e-06
-6.09202e-07
-7.7532e-05
7.52181e-05
-2.30015e-06
5.35312e-06
-2.16076e-05
1.85574e-05
-5.85891e-06
3.29347e-06
1.56896e-05
-1.93392e-05
-2.88209e-05
2.98692e-05
-1.04828e-06
2.7981e-06
-2.62244e-06
-2.94706e-05
2.9295e-05
2.97013e-06
-4.14689e-06
-1.02306e-05
1.14073e-05
8.02181e-06
-1.45449e-05
-3.15919e-06
9.66781e-06
1.95393e-05
-2.28581e-05
-1.02645e-05
1.33876e-05
2.52316e-05
-2.7054e-05
-8.84176e-06
1.06641e-05
2.84817e-05
-2.96872e-05
-5.57132e-06
6.77676e-06
3.07455e-05
-3.16361e-05
-1.14546e-06
2.0361e-06
3.21787e-05
-3.19153e-05
4.86716e-06
-5.13058e-06
3.17108e-05
-3.66018e-05
1.29929e-05
-8.07818e-06
2.97005e-05
-1.08666e-05
6.93075e-06
1.99916e-06
1.3657e-05
-1.29856e-05
2.99525e-06
-5.29284e-06
4.04709e-05
-7.54804e-05
7.44341e-06
-1.05234e-05
7.4695e-05
-7.42974e-05
1.6226e-05
-1.31602e-05
6.58605e-05
-5.58167e-05
1.5621e-05
-7.62796e-06
4.7281e-05
-3.85666e-05
4.42382e-06
-2.14811e-06
2.80687e-05
-1.81489e-05
1.15961e-06
-1.7681e-06
1.20083e-05
-7.99428e-06
-7.73431e-07
-2.16104e-06
6.9464e-06
-1.06887e-05
-7.83528e-06
3.12905e-06
1.43198e-05
-1.39871e-05
-1.97389e-05
1.564e-05
1.49168e-05
-1.72639e-05
-1.58758e-05
1.76121e-05
1.97751e-05
-2.75661e-05
5.86225e-06
2.36081e-06
4.09369e-05
-5.31885e-05
1.97536e-05
-3.98433e-06
-2.95143e-05
2.8172e-05
1.34227e-06
1.11303e-06
-7.06199e-07
-2.85971e-05
2.81903e-05
5.29794e-07
-5.1192e-06
-1.35174e-05
1.81068e-05
1.36064e-05
-1.98002e-05
-1.68124e-05
2.32007e-05
2.33611e-05
-2.61888e-05
-1.63227e-05
1.91504e-05
2.86258e-05
-3.0594e-05
-1.26033e-05
1.45715e-05
3.22939e-05
-3.38159e-05
-8.2349e-06
9.75691e-06
3.51141e-05
-3.62175e-05
-2.99982e-06
4.10325e-06
3.77909e-05
-4.38042e-05
4.23995e-06
1.77902e-06
5.75183e-05
-4.96625e-05
-7.9957e-06
1.77577e-05
5.02066e-05
-9.54145e-05
-4.67243e-06
1.65422e-05
9.474e-05
-0.000102741
2.84594e-06
2.12892e-06
5.19364e-05
-5.13527e-05
1.72512e-06
5.7965e-07
4.72866e-05
-0.000101752
9.10324e-06
-2.26507e-05
0.00012162
-0.000101623
1.86232e-05
-3.17718e-05
4.26534e-05
-2.08321e-05
4.17416e-06
-1.61107e-05
1.61402e-05
-1.85952e-05
3.77434e-06
-7.8994e-06
3.76921e-05
-5.01829e-05
3.23768e-06
-2.07266e-05
6.21678e-05
-7.55201e-05
-2.11107e-06
7.66676e-07
8.52461e-05
-8.994e-05
-1.49381e-05
1.74198e-05
9.24201e-05
-9.30283e-05
-1.99619e-05
2.0368e-05
8.56857e-05
-7.05918e-05
-6.8822e-06
-5.84215e-07
5.35374e-05
-4.5421e-05
2.77421e-07
-8.1388e-06
-2.75805e-05
2.97489e-05
-2.16843e-06
3.70205e-07
-3.26708e-06
-2.88036e-05
3.17005e-05
8.92622e-06
-1.6149e-05
-2.51071e-05
3.23331e-05
2.08698e-05
-2.30766e-05
-2.75363e-05
2.97431e-05
2.51277e-05
-2.75244e-05
-2.18117e-05
2.42084e-05
2.9639e-05
-3.12211e-05
-1.64777e-05
1.80599e-05
3.23764e-05
-3.33176e-05
-1.11234e-05
1.20646e-05
3.45195e-05
-3.66097e-05
-5.46691e-06
7.55712e-06
3.96365e-05
-4.44036e-05
-9.88474e-06
1.46713e-05
3.31196e-05
-3.05345e-05
-2.40717e-05
3.53008e-05
8.29543e-05
-8.78904e-05
-2.2993e-05
2.98677e-05
9.07124e-05
-7.45653e-05
-7.41681e-06
1.37192e-05
4.42579e-05
-6.00655e-05
-3.79971e-06
9.79402e-06
0.000115026
-0.000128257
2.33841e-05
-1.03277e-05
0.000131351
-0.000132638
3.84741e-05
-3.97159e-05
0.000129522
-0.000126632
3.36028e-05
-3.98361e-05
0.000119396
-0.000115572
2.21536e-05
-3.00619e-05
0.000121514
-0.0001225
2.05784e-05
-1.38298e-05
0.000117706
-9.35414e-05
1.84899e-06
-5.53186e-07
6.57157e-05
-5.36647e-05
-9.56839e-06
7.73064e-07
4.34048e-05
-4.2112e-05
-2.01058e-06
-1.3429e-05
1.95756e-05
-9.28856e-07
1.7574e-05
-6.3337e-06
1.03229e-07
-2.21839e-06
1.38655e-06
1.35533e-08
-3.66876e-05
4.89778e-05
-1.22902e-05
1.41267e-05
-2.19462e-05
-3.80536e-05
4.5873e-05
2.77166e-05
-2.95515e-05
-3.68277e-05
3.86626e-05
2.59248e-05
-2.35476e-05
-3.16892e-05
2.47593e-05
2.354e-05
-2.83701e-05
-2.69211e-05
2.33793e-05
3.56389e-05
-3.84364e-05
-1.80997e-05
1.79216e-05
3.83565e-05
-3.75713e-05
-1.18078e-05
1.09664e-05
3.32913e-05
-2.49009e-05
-6.0213e-06
2.47735e-06
1.98256e-05
-2.91717e-05
-1.88222e-05
1.3213e-06
3.67094e-05
-9.08453e-06
-3.66527e-05
2.75719e-05
4.3428e-06
-1.49609e-06
-1.30592e-06
1.81715e-06
1.4307e-05
-3.40637e-05
-9.45874e-06
1.86711e-06
2.49867e-05
-9.8101e-06
-7.38088e-06
3.11348e-06
-8.92151e-08
6.88672e-07
4.79177e-06
-8.74239e-06
-8.51929e-07
9.92496e-08
7.68546e-07
5.04753e-09
1.2684e-05
-4.72521e-05
3.28219e-05
-1.05405e-06
7.2135e-05
-8.17231e-05
3.92912e-05
-1.12297e-05
3.92529e-05
-4.0135e-06
4.88732e-06
-1.72209e-06
2.19223e-06
-2.10758e-06
3.97409e-09
8.96346e-08
3.67531e-05
-3.88347e-05
7.50294e-06
-7.206e-06
2.92735e-05
-8.04411e-07
2.26147e-05
-6.44813e-08
2.61192e-09
-1.75036e-08
3.04188e-08
-1.60999e-08
3.00861e-08
2.96736e-08
-1.109e-07
4.46856e-08
-6.53541e-05
8.29472e-05
-1.75934e-05
3.84099e-05
-5.9387e-05
-5.81037e-05
7.90743e-05
5.65361e-05
-6.19519e-05
-2.73992e-05
2.09352e-05
5.33679e-05
-3.71235e-05
-1.51112e-05
2.11235e-05
2.75004e-05
-3.11384e-05
-1.84896e-05
2.40024e-05
4.70458e-05
-5.28556e-05
-2.06996e-05
2.12426e-05
4.28302e-05
-9.94116e-06
-9.829e-06
8.12785e-07
3.4619e-06
-3.21081e-06
-1.15548e-06
6.54066e-07
3.32202e-06
-3.52577e-06
-1.08565e-06
9.78541e-07
3.64293e-06
-2.49808e-06
-7.61426e-06
5.3616e-06
3.71834e-06
-1.06228e-05
-2.8574e-06
5.56227e-06
2.48585e-05
-1.96683e-05
-2.07534e-06
-4.66599e-08
8.95395e-06
1.20189e-06
1.31451e-05
-8.33644e-06
-1.31296e-06
4.76718e-08
2.98621e-06
-1.70309e-06
-2.02436e-08
2.31314e-08
-3.37907e-09
-6.76196e-09
-3.59807e-08
1.26286e-08
1.0205e-08
1.41133e-08
-3.16522e-09
-6.48693e-09
3.20585e-09
6.46375e-09
2.59355e-08
-3.04858e-08
1.48648e-09
6.99463e-10
1.55535e-06
-1.31203e-06
-2.1566e-08
-3.38063e-09
7.04334e-09
4.72868e-09
3.55069e-08
-4.42848e-08
-2.45087e-09
-6.74221e-09
4.77059e-08
-1.9273e-08
8.52274e-09
-1.53018e-08
-2.28109e-09
1.40667e-08
1.95722e-08
1.79022e-08
-3.65502e-08
-5.4299e-09
-9.89637e-05
8.32297e-05
-1.50968e-05
2.20259e-05
-1.23831e-05
-3.91909e-05
1.18831e-05
7.61099e-05
-0.000100132
-1.55452e-05
8.19588e-06
0.000102136
-0.000103006
-1.98616e-05
2.10922e-05
9.8108e-05
-6.49745e-05
-2.65079e-05
1.52348e-05
1.58867e-05
-3.46835e-06
-1.00547e-05
-2.50574e-07
1.97438e-06
-1.82659e-06
1.7824e-07
7.67163e-07
2.88494e-05
-3.44598e-05
-2.44328e-06
-4.99696e-09
2.8421e-05
-1.97451e-05
-1.21583e-06
1.55154e-07
1.14524e-05
-2.27661e-05
-9.698e-06
2.85619e-07
2.83577e-05
-2.8047e-05
-1.18858e-05
5.53509e-07
2.85148e-05
-2.17345e-05
1.09302e-06
-3.60448e-06
1.22049e-05
-1.23027e-05
9.67669e-06
-8.49996e-06
1.18075e-05
-7.87479e-06
5.7913e-06
-8.77241e-06
1.73871e-06
-6.23152e-08
6.4624e-08
-1.08332e-06
1.1577e-08
-6.60604e-10
-6.99307e-09
-3.90971e-09
-4.43019e-09
4.25979e-09
-1.21823e-08
1.23521e-08
-9.76346e-10
-2.19041e-09
-6.97003e-09
1.01296e-08
6.34743e-10
4.2465e-09
9.81096e-09
-1.48941e-08
-5.03783e-09
-4.23458e-08
4.72904e-08
-9.26821e-09
4.50973e-08
-1.50319e-08
-2.62399e-09
-1.85204e-08
1.90889e-08
-2.18973e-08
-1.92279e-08
2.09264e-08
2.65724e-07
-4.79187e-07
1.2825e-06
-2.24115e-06
-1.17008e-05
7.9821e-07
-1.55933e-06
6.2698e-06
-9.8715e-06
-1.05731e-05
6.4523e-06
7.88954e-05
-0.000114036
-9.4458e-06
1.15839e-05
0.000118707
-2.80287e-05
-2.23978e-05
9.12221e-06
2.40231e-06
-3.85367e-06
2.45191e-07
1.19239e-07
9.86558e-06
-8.50338e-06
-1.8245e-06
3.21157e-06
7.85867e-06
-1.76892e-07
-1.79025e-06
4.31508e-06
6.61726e-08
-7.93289e-08
5.45172e-09
-1.2484e-08
7.66341e-08
-4.95248e-08
3.86206e-08
-8.75291e-08
-6.32262e-09
1.3849e-07
-3.41699e-08
-2.06679e-07
-2.36859e-07
2.88229e-07
-4.49572e-07
2.10738e-07
-2.21348e-07
6.65131e-09
2.03078e-07
5.79975e-09
2.06368e-07
-1.69741e-06
2.34501e-06
-1.0337e-08
6.33645e-06
-1.05493e-05
8.0447e-06
-2.93015e-06
1.15251e-05
-8.59624e-06
5.91723e-06
-7.97515e-06
8.66469e-07
-2.18081e-08
4.41028e-08
-8.88702e-07
1.8482e-08
-1.35554e-08
-7.9007e-09
2.97354e-09
1.09793e-08
-1.33551e-08
-9.6825e-09
1.20543e-08
1.34037e-08
-2.86181e-07
1.56509e-08
-9.08495e-07
4.18449e-06
-4.49806e-06
3.62682e-06
-3.19506e-06
4.42323e-06
-3.17944e-06
1.89382e-06
-2.77862e-06
6.7305e-07
-4.889e-07
-5.24977e-08
5.25196e-08
6.23605e-07
-2.20404e-09
1.09957e-06
-1.21831e-08
-3.89985e-07
2.09308e-07
-6.48606e-08
6.22334e-08
1.39378e-06
-2.96442e-06
1.02654e-06
2.83029e-05
-8.0517e-05
-1.19198e-05
8.80497e-06
5.32327e-05
-2.93792e-07
-5.32493e-06
8.69382e-06
1.59877e-07
-1.66387e-07
-6.08258e-08
4.66542e-08
5.9324e-07
-1.90113e-06
-1.3454e-06
3.12628e-09
1.67747e-06
-9.56623e-07
-1.56369e-06
1.29668e-08
3.91613e-07
-1.85961e-07
-9.72196e-09
3.01599e-08
4.60743e-07
-9.72272e-07
2.14194e-07
-6.42926e-06
2.25707e-06
-1.63345e-06
5.79126e-06
-6.34115e-06
6.64115e-07
-7.45211e-08
7.91036e-09
-1.71419e-06
-1.02586e-08
7.45088e-09
-2.82018e-08
3.10349e-08
3.84152e-10
-5.47289e-09
-2.2599e-09
7.06955e-09
1.13117e-08
-4.41405e-08
5.68425e-08
-2.49148e-08
8.62914e-07
-5.35401e-06
3.0445e-06
-2.10207e-07
9.89198e-06
-5.11192e-07
1.96415e-06
-2.35921e-06
4.49177e-08
-4.91541e-08
-1.82843e-09
5.32384e-09
6.47054e-08
-1.47652e-06
-3.58468e-08
-1.48261e-07
5.80357e-06
-5.41026e-06
2.60524e-06
-1.433e-06
5.5756e-06
-2.12332e-09
2.31841e-06
-1.1347e-08
1.94746e-09
-2.27654e-09
1.92536e-09
-1.75976e-09
3.37926e-09
-1.00553e-08
1.17703e-08
-1.05626e-08
6.84463e-09
-6.27665e-09
1.07205e-08
-7.55233e-09
-1.25465e-07
9.09197e-08
-4.2596e-09
1.25861e-08
2.68951e-08
-3.5312e-07
1.88102e-07
3.22905e-07
-3.44847e-05
-4.91391e-06
4.06724e-06
6.81936e-05
-1.84199e-06
-1.91337e-05
2.91347e-05
4.77829e-08
-7.25336e-08
-5.41219e-08
6.57146e-08
9.79828e-08
-1.47999e-07
-2.1324e-08
5.24296e-08
6.18653e-08
-1.80488e-06
4.94708e-08
-9.5597e-07
5.71229e-06
-5.09779e-06
5.75162e-06
-6.30583e-06
4.73458e-06
-4.39669e-06
6.71407e-06
-6.97825e-06
4.1139e-06
-4.02588e-06
6.52861e-06
-6.53996e-06
4.0648e-06
-2.39066e-08
2.91484e-06
-2.58468e-06
1.50882e-08
-1.65565e-08
-2.57849e-08
2.75621e-08
2.00757e-08
-2.68633e-08
-1.10328e-08
1.69545e-08
1.45238e-07
-4.59363e-07
6.8726e-08
-2.19062e-06
4.03995e-07
3.87084e-08
1.98996e-07
-7.07302e-07
1.82463e-07
-5.59154e-06
5.31704e-07
1.94936e-07
6.0982e-06
-5.88281e-06
-1.58661e-08
1.11474e-07
6.13836e-07
-1.01093e-09
2.12361e-08
-2.7573e-11
8.16322e-10
-1.55152e-09
3.61492e-09
-1.28276e-09
4.63151e-09
-4.65412e-09
2.89782e-09
-7.80792e-09
1.3016e-09
-5.67422e-09
8.6615e-10
-3.97305e-09
2.31031e-08
-2.83637e-08
1.28627e-08
-6.27764e-09
3.57582e-08
-3.45104e-08
1.28938e-08
-1.22343e-08
-6.8491e-08
5.74519e-08
-1.34381e-09
5.64594e-09
-8.57293e-09
-1.40109e-07
1.21102e-07
-1.35116e-08
-2.20462e-05
-4.89279e-06
6.54689e-06
5.73164e-05
-2.9519e-05
-3.28935e-05
3.36388e-05
5.44091e-08
-6.63179e-08
-7.32502e-08
7.20687e-08
1.01167e-07
-2.17811e-07
-9.56571e-08
1.72131e-07
6.94107e-06
-6.71885e-06
3.11632e-06
-3.19639e-06
6.43482e-06
-6.31852e-06
6.49082e-06
-6.49929e-06
5.01262e-06
-2.25791e-07
6.59529e-06
-4.32956e-08
3.69407e-07
-1.57231e-06
3.66523e-06
-1.04798e-07
1.93001e-06
-4.74665e-08
6.72409e-07
-2.40493e-09
3.83889e-08
-6.10353e-08
-3.12582e-08
5.24251e-08
9.2387e-08
-1.61442e-06
-8.17276e-09
-4.51875e-07
1.37081e-06
-1.23408e-06
2.39692e-06
-2.52576e-06
1.18829e-06
-9.1519e-07
1.37742e-06
-1.63647e-06
4.64524e-08
-2.26854e-08
-1.12067e-07
7.06665e-08
6.93567e-08
-7.23243e-07
-3.89742e-08
-3.12425e-08
5.82807e-07
-3.83037e-09
-2.39871e-12
1.9081e-07
3.57117e-09
-9.52677e-09
2.44079e-09
-4.99634e-10
1.12174e-08
-1.13773e-08
8.69369e-09
-8.06183e-09
1.09372e-08
-2.34143e-12
6.46468e-09
-8.48416e-14
4.16567e-12
-6.8131e-11
6.41505e-11
-2.15574e-13
4.6252e-10
-2.84054e-09
2.40785e-09
-3.4928e-11
-4.84515e-08
4.56499e-08
-4.29776e-09
1.86706e-08
-8.59081e-08
-1.23788e-07
1.76774e-07
3.81445e-07
-2.79882e-05
-1.26384e-05
2.20675e-05
2.75053e-05
-2.39176e-06
-3.07195e-05
1.75617e-05
1.15587e-07
-1.18205e-07
-6.47009e-08
5.51184e-08
1.38328e-07
-1.29456e-07
-2.998e-07
1.24632e-07
8.90389e-08
-1.1818e-06
1.67332e-06
-8.50339e-09
1.05643e-06
-9.18719e-09
3.896e-06
-1.27905e-08
2.29922e-08
-4.24885e-08
3.59633e-08
-2.58635e-08
2.4031e-07
-1.44883e-07
1.03564e-07
-7.17314e-07
2.2625e-07
-4.05063e-07
2.79599e-09
2.50315e-08
6.29166e-08
-3.20308e-08
-5.27424e-08
4.42248e-08
2.54806e-08
-6.2306e-07
8.72351e-07
-1.40355e-07
1.16095e-06
-1.79931e-06
2.52026e-06
-1.86417e-06
1.91814e-06
-1.02167e-06
1.50565e-06
-1.69082e-08
2.46849e-07
-2.20428e-08
-3.20332e-08
1.96682e-08
6.92142e-08
-2.07053e-07
-2.49764e-09
4.92878e-08
1.5953e-07
-2.58635e-11
-2.11807e-07
6.29031e-09
1.7915e-11
-3.68957e-12
3.20746e-11
-8.30242e-11
1.38257e-12
-1.77948e-13
3.74742e-11
-3.86416e-11
1.66104e-13
-8.37914e-14
1.21631e-13
-2.17647e-13
1.15277e-13
-1.65466e-13
9.12464e-14
-1.24256e-13
1.37698e-13
-3.04474e-13
4.12698e-13
-1.78414e-13
-4.61392e-08
5.67989e-08
-1.7759e-08
6.47592e-08
-3.67043e-07
-2.62519e-07
5.56052e-07
1.23104e-05
-2.44183e-05
-2.90749e-05
3.86459e-05
6.11029e-06
-7.02755e-08
-7.24765e-06
1.21206e-06
2.34616e-08
-1.42158e-08
-4.81018e-08
1.00399e-08
8.82072e-09
-4.82135e-09
-1.41161e-08
5.67388e-09
1.45689e-08
-3.47044e-08
1.00344e-08
-4.95168e-08
1.67798e-08
-3.31086e-09
1.25087e-08
-4.57737e-09
5.43255e-09
-2.1616e-08
1.80951e-08
-1.51655e-09
5.02938e-07
-6.92265e-07
6.85479e-07
-4.1288e-07
6.03037e-07
-2.03785e-07
7.75632e-08
-3.88416e-07
1.52478e-10
2.23469e-08
-2.79215e-08
1.02723e-07
-1.18834e-08
5.47421e-09
5.27068e-09
1.05289e-08
1.46129e-09
-4.77656e-09
8.81866e-09
-5.86509e-09
8.30655e-09
-7.60318e-09
1.34973e-08
-1.48991e-08
6.41903e-09
-2.60235e-08
-2.60538e-09