/*--------------------------------*- C++ -*----------------------------------*\
| =========                 |                                                 |
| \\      /  F ield         | OpenFOAM: The Open Source CFD Toolbox           |
|  \\    /   O peration     | Version:  v1912                                 |
|   \\  /    A nd           | Website:  www.openfoam.com                      |
|    \\/     M anipulation  |                                                 |
\*---------------------------------------------------------------------------*/
FoamFile
{
    version     2.0;
    format      ascii;
    class       volScalarField;
    location    "0.9";
    object      alpha.water;
}
// * * * * * * * * * * * * * * * * * * * * * * * * * * * * * * * * * * * * * //

dimensions      [0 0 0 0 0 0 0];


internalField   nonuniform List<scalar> 
9072
(
1
1
1
1
1
1
1
1
1
0.999896
0.994955
0.971398
0.969632
1
1
0.999998
0.999923
0.993826
0.997961
0.996685
1
1
0.999997
1
1
1
1
1
1
1
1
1
0.998883
0.959098
0.959098
0.99482
1
0.999985
1
0.998657
0.999484
0.98967
0.949196
1
0.999906
0.999979
1
1
1
1
1
1
1
1
1
0.999979
1
1
1
1
0.999968
1
0.997959
0.863792
0.857838
0.980496
1
0.999998
0.999998
1
1
1
1
1
1
1
1
1
1
1
1
1
1
1
1
1
0.951018
0.874947
1
1
1
1
1
1
1
1
1
1
1
1
1
1
1
1
1
1
1
1
1
1
0.999999
1
1
1
1
1
1
0.999995
0.999834
1
1
1
1
1
1
1
1
1
1
1
1
1
1
1
1
1
1
1
1
1
0.999952
0.99158
1
1
1
1
1
1
0.999999
0.999967
0.999806
0.999858
0.999851
1
1
1
1
1
1
1
1
1
1
1
0.986476
1
1
1
1
1
0.999999
0.998968
0.471782
0.229071
0.376458
0.949383
0.9924
1
1
1
1
1
1
0.999994
0.986833
0.950658
0.995236
0.979108
0.992441
0.993226
0.992879
0.987634
0.997869
0.997857
0.458633
0.203984
0.605052
0.894323
0.531803
0.890018
0.920477
0.919841
0.652294
0.983096
0.982505
0.997349
0.942484
0.610929
0.627217
0.997556
0.990884
0.997789
0.507335
0.204158
0.407158
0.964064
0.957047
0.948915
0.644298
0.92037
0.6526
0.936208
0.993354
0.995265
0.379231
0.0598523
0.582845
0.400511
0.789181
0.997846
0.862068
0.205231
0.210684
0.964623
0.964432
0.157581
0.0552571
0.711788
0.866802
0.816484
0.496255
0.988159
0.981672
0.0586875
0.0586875
0.662666
0.572443
0.997852
0.997849
0.910192
0.581394
0.964968
0.964904
0.760535
0.0551625
0.055006
0.366967
0.865765
0.477487
0.508867
0.988258
0.915046
0.10801
0.637037
0.656021
0.252726
0.992101
0.962995
0.786056
0.964901
0.96497
0.964498
0.0762027
0.0549355
0.0549854
0.257183
0.792336
0.363502
0.807605
0.806435
0.971223
0.823335
0.899706
0.255247
0.252726
0.918383
0.721993
0.207842
0.875918
0.964844
0.302487
0.0549291
0.0549378
0.0549701
0.0549727
0.474639
0.900139
0.519267
0.954397
0.852669
0.79473
0.701239
0.244112
0.565403
0.154079
0.108385
0.108437
0.963606
0.837386
0.693726
0.0549316
0.0549311
0.0549457
0.0549799
0.674114
0.598089
0.599727
0.954384
0.882802
0.797754
0.928233
0.244115
0.120003
0.516004
0.108642
0.53203
0.962752
0.573933
0.697252
0.543347
0.0549711
0.0553668
0.446982
0.907923
0.907923
0.637592
1
1
1
0.979518
1
1
1
1
1
0.999838
0.27623
0.149432
0.702214
0.815173
0.689787
0.625758
0.462966
0.387187
0.539848
0.940769
0.993604
0.997148
0.894429
1
1
1
0.98431
1
1
1
1
0.999968
0.60766
0.654932
0.794135
0.271872
0.429474
0.79444
0.152866
0.131495
0.481787
0.745307
0.977648
0.992438
0.806713
0.875569
1
1
0.999922
1
1
1
1
1
0.999897
0.335127
0.787281
0.759541
0.191572
0.837078
0.848725
0.857287
0.858653
0.917916
0.725708
0.405801
0.462669
0.222512
0.00248449
1
1
0.999999
0.802611
0.772798
0.980512
0.997835
0.943169
0.475747
0.375822
0.0413485
0.523348
0.605901
0.135582
0.000992095
0.431335
0.721404
0.107859
0.0152651
0.409792
0.168796
0.00033946
0.000370218
0.999997
0.999828
0.719018
0.732422
0.539717
0.970552
0.280095
0.0231798
0.0228003
0.0267658
0.0986947
0.561694
0.308572
0.000612328
0.000418398
0.000207193
0.000203841
0.000211242
0.0218572
0.00026857
0.000292892
0.000332646
0.000406078
0.877712
0.0938559
0.954208
0.970269
0.866112
0.027584
0.00573357
0.208739
0.192809
0.128833
0.20224
0.132993
0.108897
0.109121
0.000890072
0.000203827
0.000203767
0.000203784
0.00020672
0.000285467
0.00033275
0.000343616
0.0498089
0.0258413
0.0307687
0.921629
0.539646
0.00271014
0.0576799
0.0300239
0.000602401
0.000656917
0.00104181
0.00127806
0.000248285
0.00122035
0.109075
0.105273
0.000203889
0.000203767
0.000203783
0.00320545
0.0849195
0.0849195
0.00396896
0.0245116
0.00158402
0.00412655
0.633978
0.111373
0.000402307
0.0070832
0.00850745
0.00332956
0.0344606
0.0685037
0.0231067
0.000183718
0.000182168
0.000185257
0.0336075
0.0683492
0.000206896
0.00508169
0.0805026
0.0292759
2.68039e-05
3.39058e-05
0.000167213
0.00023774
0.000624487
0.185129
0.332175
0.000381015
0.000417388
0.0164515
0.0683603
0.0685398
0.0685005
0.0595731
0.000184072
0.000183779
0.0130446
0.00861778
0.0393108
0.0721262
3.3099e-06
7.35962e-06
7.02361e-05
5.41405e-05
0.00046805
0.00046805
9.64493e-05
0.000150347
0.107408
0.46691
0.000381057
0.000498259
0.0681088
0.0682884
0.014277
0.000982111
0.0146764
0.000189864
0.00659131
0.0244641
0.0244298
0.000668671
0.0105699
0.0069742
6.39466e-05
0.000205337
5.67741e-05
1.53269e-09
3.42067e-08
7.77467e-05
0.000110775
0.216535
0.374002
0.000389478
0.00367628
0.00124963
0.00523649
7.75766e-05
0.00272275
0.00293314
0.000283013
0.0104788
0.024339
0.0136289
0.00130919
0.00665316
0.00147055
1.48394e-07
3.24164e-09
1.44806e-09
2.80368e-09
4.24692e-09
7.77467e-05
0.000128531
0.392071
7.60348e-05
0.000152335
9.04517e-05
0.000409452
5.81528e-05
6.69369e-06
0.00730707
0.00694615
0.000575442
0.000195318
9.95869e-05
0.000100493
0.000225798
1.50733e-05
2.33345e-08
2.6892e-07
6.56155e-07
1.30347e-07
1.29506e-10
4.23373e-09
9.08507e-05
0.000300413
0.388817
3.55922e-05
3.55449e-05
0.000203877
0.00315452
2.39127e-06
2.33932e-06
2.4807e-06
0.00522651
0.00711304
0.00403069
9.45081e-05
0.000744332
0.000266281
2.82713e-07
2.31705e-07
8.85943e-10
3.44393e-10
3.51098e-10
1.35588e-10
1.4663e-10
8.99979e-05
0.0719921
0.398861
7.66421e-05
3.78957e-05
0.000432101
0.00213747
1.1697e-05
2.39724e-06
2.92303e-06
4.16548e-06
7.30765e-05
0.00121679
0.000628917
0.000172699
0.00341441
6.05511e-05
7.77728e-05
1.08811e-08
1.00035e-09
6.21405e-10
4.28854e-11
1.73098e-11
2.05319e-05
0.104317
0.401351
4.0913e-05
4.02368e-05
0.00129992
0.000230991
0.00037994
9.44738e-06
2.74794e-05
0.00194826
0.0571644
0.0520286
6.6908e-05
0.000216306
0.00345797
3.07753e-07
1.77498e-06
4.70488e-09
8.78393e-10
2.38613e-10
1.29662e-11
2.69923e-12
1.19218e-05
0.00176629
0.390859
3.83797e-05
4.32278e-05
0.00146093
0.000220361
0.000189455
0.000511618
0.00222699
0.0196595
0.0586302
0.0492303
6.6839e-05
6.73264e-05
0.00345297
1.56015e-09
4.72537e-09
2.40369e-10
2.6387e-10
2.43164e-11
5.47686e-12
6.50835e-13
0.0342818
2.97567e-05
0.381964
3.83904e-05
0.00163172
0.0004147
0.00098923
0.000981152
0.000607912
0.000642495
0.00528767
0.0574737
2.1225e-06
0.000139527
0.00115209
0.00012354
4.12247e-10
3.81913e-10
1.2459e-10
1.98843e-11
5.96588e-12
8.90552e-13
9.88219e-14
0.106718
0.000278146
0.233727
0.00157597
0.00304708
0.000362476
0.000990833
0.000459477
0.000467329
0.000667379
0.0273513
0.0307011
4.42001e-11
5.27223e-06
7.19594e-11
3.30032e-08
4.02774e-07
1.40963e-11
2.19257e-11
3.36292e-12
5.88502e-13
8.66216e-14
8.78767e-15
0.0808409
0.000126317
0.000144121
0.0145088
0.00271714
0.000259647
0.000977684
0.000459477
0.000978186
0.000937722
0.000492882
0.0392886
3.62605e-11
6.05982e-11
6.84336e-11
4.93694e-12
4.88886e-12
1.06047e-11
9.40314e-13
1.83694e-13
3.22404e-14
4.42392e-15
4.47948e-16
0.214413
0.000113135
0.000118308
0.00120243
0.000114275
0.000629293
0.000989309
0.000997719
0.000993951
0.000919203
0.000207472
0.0395276
5.28911e-10
3.22031e-11
1.04695e-10
1.57984e-11
2.39167e-12
4.39147e-13
4.57506e-14
5.61267e-15
8.84996e-16
1.24244e-16
1.47146e-17
0.220916
0.000113246
0.0638376
0.000140659
1.89765e-05
0.000152127
0.000991894
0.000997719
0.000658957
0.000104728
0.000129884
0.021882
0.00226941
2.21317e-11
1.90855e-11
3.18516e-12
2.00062e-12
8.94766e-13
1.92945e-13
5.35761e-16
3.03181e-17
2.62191e-18
2.34112e-18
0.221295
0.130384
0.00682953
0.000302953
2.76655e-06
1.71946e-06
1.06214e-05
2.02666e-05
4.1821e-05
9.78665e-05
0.00180763
0.00465149
0.00730308
2.03034e-11
1.0293e-11
2.31503e-11
2.25449e-11
2.21741e-10
7.21585e-11
3.38343e-15
2.26156e-15
1.74985e-18
8.54585e-18
0.221312
0.00420983
8.48644e-05
3.36187e-05
5.25349e-07
4.38784e-07
9.38145e-07
5.65292e-05
0.00438741
0.0102428
0.00576636
0.0137976
0.00417023
2.03015e-11
1.13469e-11
1.61224e-10
1.41002e-08
2.00317e-07
5.6577e-08
-6.19646e-11
3.58096e-14
2.87339e-17
1.15906e-17
0.221312
7.47392e-05
5.26129e-06
6.35101e-07
4.21826e-07
4.21813e-07
0.00395277
0.0182901
0.0052805
0.00580667
0.0213505
0.0181056
3.86795e-10
9.08355e-11
9.46531e-09
9.17316e-07
0.000882281
0.0018819
0.000119166
-1.32513e-10
3.86938e-15
1.30629e-16
7.9826e-18
0.00290968
0.0062001
1.06761e-06
1.14152e-06
4.38907e-06
0.0160623
0.0334554
0.00685296
0.0170978
0.00551396
0.000935545
3.52727e-06
-3.93027e-09
6.63344e-09
1.61255e-07
8.33045e-06
1.25048e-05
6.32942e-05
0.00444792
1.75722e-05
4.54019e-15
3.48202e-16
3.32811e-18
0.00218214
0.0653402
9.24761e-07
9.64829e-07
2.87549e-05
0.0414288
0.00421157
0.0134079
0.000972881
6.51676e-07
7.02552e-07
5.14826e-08
1.65937e-08
9.86234e-09
1.64367e-05
0.00115167
0.00526935
0.00136991
0.00345481
0.00151832
5.53899e-15
6.38357e-16
1.18319e-18
0.00364127
0.0631714
0.00107844
3.97496e-06
3.19572e-05
0.0406202
2.19823e-05
0.00200934
4.39239e-07
4.36367e-07
4.16181e-07
1.85622e-07
7.09173e-05
0.00133785
0.00128141
0.000712679
0.00596232
0.00621227
0.00621019
1.84448e-05
7.73063e-14
6.38425e-16
6.5628e-19
0.000628673
0.000584965
0.0285619
0.00017205
8.98712e-05
0.0233221
0.00235183
1.56178e-06
5.00345e-07
2.30129e-06
0.000652306
0.000679507
3.90731e-11
2.63324e-11
5.52784e-28
8.68831e-24
-2.36264e-11
0.00348867
2.00375e-13
2.78143e-13
6.96038e-14
1.65893e-16
5.69434e-19
7.41898e-05
7.69353e-05
0.00202319
0.0182332
0.000490956
0.0350683
0.0153245
4.9287e-06
0.000309054
0.000541728
2.92623e-07
1.19875e-09
5.98969e-11
1.98787e-10
0
-1.36954e-11
-1.48959e-11
1.3254e-12
1.62325e-12
3.38542e-13
9.04833e-15
6.52573e-18
2.80716e-19
0.00283687
6.14277e-05
9.23725e-05
0.00102618
0.0176687
0.0391763
0.00172041
5.36519e-05
0.000565132
0.000407087
5.49062e-10
1.43578e-10
2.39095e-10
2.2181e-11
7.07424e-12
2.68787e-12
1.8837e-12
1.31915e-12
2.60499e-13
1.87447e-14
1.64961e-16
8.15332e-20
1.01452e-19
0.00265524
6.14277e-05
0.012839
0.0280319
0.029485
0.00445754
9.44939e-05
0.000107492
0.000422637
0.000276831
1.67658e-10
1.79405e-10
1.05352e-10
2.96474e-11
3.28655e-13
2.22369e-13
3.43985e-14
1.12456e-14
2.51828e-15
1.42502e-16
8.23272e-19
2.36161e-22
3.6842e-21
0.00301869
0.0190547
0.0240246
0.00556176
0.000477401
0.00016263
0.000224695
1.46247e-05
6.46843e-05
0.000167148
1.93123e-10
6.75771e-08
9.88394e-09
6.97797e-09
3.04009e-13
1.83177e-13
9.63934e-15
2.30353e-16
1.21157e-17
6.33035e-19
3.03806e-21
5.0941e-25
1.02949e-21
0.0193931
0.0203033
0.000228027
0.00051145
0.000210702
0.000129487
5.32826e-05
1.38799e-05
6.54004e-05
0.000185002
2.88674e-08
0.000127998
0.000342296
1.3654e-06
-2.56983e-09
2.02126e-13
7.57124e-13
1.05604e-16
4.16032e-19
4.84303e-21
9.45756e-24
1.13349e-27
1.38901e-23
0.0108559
0.0195833
9.44734e-05
0.000883361
0.000883361
0.000803303
3.20528e-05
2.0971e-05
1.40076e-05
7.39885e-06
6.68603e-06
0.00150366
0.00150277
0.00136235
5.05404e-10
1.50521e-12
3.18061e-12
5.05537e-15
9.45795e-20
6.00987e-23
4.24785e-26
4.25438e-29
1.09049e-24
0.0152053
0.0126871
8.41247e-05
0.000194798
0.000476242
1.3868e-05
6.68146e-07
7.88456e-07
1.37686e-05
1.35651e-05
0.000102786
0.00134851
5.01497e-05
0.000105476
0.000663648
3.03662e-11
7.85464e-12
8.44892e-14
5.63247e-19
1.72897e-23
4.272e-28
3.11904e-31
3.42874e-26
0.00350507
0.0163854
0.00194169
3.6871e-05
8.26773e-06
8.81659e-07
1.85135e-07
1.63134e-07
2.07266e-07
5.45168e-05
7.58087e-05
5.41995e-05
0.000450286
2.07715e-05
0.000466993
1.28738e-09
1.22298e-10
6.58933e-13
5.70832e-17
2.8739e-22
5.35328e-27
2.31226e-32
1.87067e-29
0.00511065
0.00557281
0.00548797
0.00513821
0.00206635
1.34145e-06
1.77411e-07
1.56347e-07
1.56242e-07
2.92999e-07
0.00045223
4.36252e-05
2.03813e-05
2.03813e-05
0.000461639
2.94501e-08
1.79648e-11
1.78784e-12
1.08403e-15
4.14562e-20
1.07438e-24
2.18919e-31
7.66917e-33
0.00511065
5.09136e-05
3.4243e-05
6.60769e-05
0.00322957
0.00309275
2.90543e-05
8.9005e-07
1.73522e-07
2.0263e-07
0.000166754
0.000393222
2.05918e-05
0.000255673
0.000681724
9.69395e-08
7.76635e-11
1.24325e-13
1.53485e-15
1.22662e-19
2.15692e-24
3.19889e-30
-2.85579e-34
0.00115709
9.09248e-06
6.39629e-06
5.32313e-06
2.33725e-05
0.00292673
0.00276308
1.52756e-05
5.68311e-07
1.23428e-07
1.17643e-07
0.00252718
5.24871e-05
0.000646077
7.87161e-05
1.17043e-08
2.77745e-11
5.42048e-14
1.34351e-18
8.20388e-23
2.86375e-28
3.52549e-33
-6.18566e-35
0.00868635
5.89698e-06
5.46875e-06
3.9796e-06
4.30109e-06
0.000125638
0.00062717
1.95032e-05
3.3593e-07
3.97027e-08
3.3901e-08
0.00279471
0.00271568
3.9365e-05
4.90337e-08
1.60486e-10
9.61538e-13
1.09045e-16
1.72097e-20
4.51971e-25
1.30672e-31
-1.24256e-32
-6.05305e-36
-5.83311e-41
0.00115546
4.84554e-06
0.000118727
4.19787e-06
5.26865e-06
1.82342e-05
1.39323e-06
8.55141e-08
3.09457e-08
0.00102007
0.00281431
1.40915e-05
8.20097e-08
5.3789e-10
1.73325e-12
5.1316e-16
8.90091e-20
-1.89934e-23
-4.50366e-29
-4.51365e-35
0
-3.14937e-37
-3.54128e-43
0.00278273
6.94954e-06
0.000229958
1.00797e-05
6.17408e-06
0.000608524
0.000238592
1.99815e-07
4.09203e-08
0.00283808
0.000147587
1.60117e-07
7.94184e-10
-2.42083e-13
5.34927e-17
-4.65356e-21
-4.19374e-24
-4.99729e-31
-2.23273e-37
-5.89712e-39
-8.25486e-43
-3.35116e-39
0.874086
0.87452
0.964146
0.964146
0.834545
0.782132
0.963855
0.963816
0.136286
0.0404806
0.0456767
0.962839
0.0322988
0.081175
0.0505553
0.0310653
0.0692091
0.0588359
0.043225
0.0579274
0.0396447
0.000117158
0.000228119
0.000165278
0.000116858
0.000116882
0.000118436
9.31215e-05
0.000118835
0.00248564
0.00227943
9.221e-05
0.000308388
0.00250857
0.00250857
0.00249385
0.000885211
0.000823212
0.00127967
0.000667018
4.02303e-07
3.62515e-05
7.94378e-05
0.000149518
8.51226e-11
7.85968e-11
7.61793e-11
7.4535e-11
3.13487e-10
3.13616e-10
3.13598e-10
2.8268e-10
1.39786e-11
1.86604e-11
1.9805e-11
1.79395e-11
9.72516e-13
7.97342e-13
7.32366e-13
6.87321e-13
1.33869e-13
8.17499e-14
6.21116e-14
5.29945e-14
1.45023e-14
6.63397e-15
3.80221e-15
2.77178e-15
1.0633e-15
4.04899e-16
1.81037e-16
1.21051e-16
5.40962e-17
2.14871e-17
1.24185e-17
1.10287e-17
7.06609e-18
7.5537e-18
8.48484e-18
1.07356e-17
5.26867e-17
1.59168e-16
2.46196e-16
2.73437e-16
7.46496e-16
7.51451e-15
2.36228e-14
3.49378e-14
1.29559e-15
3.16788e-14
2.43952e-13
1.07195e-12
1.09858e-15
4.5156e-14
5.66616e-13
1.73638e-12
5.52492e-16
4.3489e-14
1.20945e-12
5.58029e-12
1.83466e-16
2.55506e-14
9.73666e-13
6.98802e-12
4.72317e-17
8.90511e-15
6.51796e-13
3.62611e-12
2.30471e-17
1.82948e-15
1.80071e-13
6.40023e-12
6.27934e-17
7.02095e-15
3.40516e-13
2.23005e-12
3.79035e-17
7.6039e-15
9.23771e-13
1.4711e-11
1.19007e-18
4.82356e-16
1.2822e-13
4.56184e-12
2.14221e-19
7.54576e-17
1.93787e-14
1.76973e-12
1.44958e-21
5.56419e-19
2.95503e-16
8.56222e-14
2.18775e-22
2.6497e-19
2.04912e-16
6.33665e-15
1.60697e-24
1.52288e-21
7.36593e-18
1.13778e-14
1.46129e-27
1.95778e-24
3.21474e-21
1.18855e-16
9.82166e-31
2.70904e-27
7.43113e-24
1.07198e-18
0
2.45322e-30
1.48587e-26
5.73559e-21
-2.94002e-34
1.3438e-32
2.01147e-28
3.26084e-22
-3.08608e-34
0
1.05414e-30
6.94393e-24
-1.87855e-35
-7.44572e-34
2.77861e-34
1.42313e-26
-1.99403e-37
-1.10107e-35
-4.70104e-35
-5.33885e-32
0.946546
0.00787908
0.00706314
0.515624
0.793666
0.0203597
0.019949
0.75981
0.764846
0.96209
0.418553
0.226355
0.745063
0.345691
0.325189
0.814153
0.907825
0.743852
0.862347
0.962634
0.0444836
0.00701197
0.00701197
0.79256
0.251075
0.019949
0.832745
0.808756
0.856962
0.007427
0.00716274
0.266119
0.747432
0.659843
0.86959
0.905806
0.541476
0.420237
0.96162
0.959882
0.362977
0.0451942
0.0372348
0.0297376
0.763958
0.478751
0.770809
0.0233726
0.190962
0.220191
0.00807988
0.150213
0.00899466
0.0124015
0.129869
0.132296
0.239234
0.848241
0.624855
0.301317
0.407414
0.589919
0.6116
0.619502
0.716758
0.476099
0.0170011
0.185721
0.224081
0.066933
0.00871309
0.0135627
0.0274594
0.0110333
0.0203108
0.00932331
0.126268
0.553165
0.512027
0.174382
0.158211
0.165899
0.395729
0.622345
0.679136
0.00013324
0.000167509
0.0143669
0.00523753
0.0331237
0.0397442
5.38369e-05
5.81374e-05
0.0112282
0.0537917
0.000112249
9.20319e-05
0.0141921
0.398187
0.446651
0.362255
0.169656
0.00187321
0.0169356
0.000132728
9.66936e-05
0.027814
0.0972322
0.0042154
0.0420875
5.38369e-05
0.000376782
4.44468e-05
7.80823e-06
0.000330328
9.20284e-05
9.23236e-05
0.00148116
0.00493694
0.00266251
0.00357522
0.000471734
0.000278918
0.00102075
9.06561e-05
0.00481392
0.0581568
0.0786701
0.0119502
9.32481e-05
0.000674399
0.00036664
6.98712e-06
9.20899e-05
9.20697e-05
0.000420448
0.000512792
0.000309541
0.000562659
8.57254e-05
5.5349e-08
1.25404e-06
3.21311e-05
8.87518e-05
0.00485116
0.0340549
0.0463556
0.000171578
0.000650635
0.000651785
1.35843e-05
0.000200083
9.41788e-05
0.000196012
0.000535741
1.10961e-08
2.45771e-08
2.04492e-08
2.04492e-08
2.20768e-08
8.70986e-08
8.08234e-08
0.00213064
0.00351572
3.61281e-05
0.00010506
0.000148738
4.34413e-06
0.000147308
0.00244232
0.000525399
0.000665062
0.000514719
1.2844e-08
1.10671e-08
1.30307e-08
3.75822e-08
2.57304e-08
1.22194e-06
0.000599207
0.00171769
0.00429745
1.05706e-05
1.06481e-05
0.000141542
1.31471e-06
4.47705e-06
0.00376803
0.00409684
0.00995446
1.73603e-06
1.3814e-05
4.57435e-06
9.50738e-09
3.17637e-08
2.21242e-08
7.5367e-08
0.0038585
0.00412507
0.00412525
0.000337615
5.53597e-06
2.13902e-05
0.000102494
1.31209e-06
1.81829e-06
0.00366776
0.00452901
0.00789228
3.90717e-11
3.51797e-07
7.14934e-10
2.74981e-08
3.74152e-09
2.21089e-09
3.27517e-07
0.000109474
6.34508e-06
3.61404e-06
2.60367e-06
5.03897e-06
1.21682e-05
1.33776e-06
1.32735e-06
0.000617942
5.85665e-05
0.00199404
0.000115526
1.3575e-10
3.35029e-11
3.68265e-10
6.47342e-11
2.45822e-09
2.24852e-09
2.81391e-08
0.00017324
1.96336e-06
1.94293e-06
1.90998e-06
1.8029e-06
1.69638e-06
7.65033e-06
8.78332e-05
0.00107026
5.01505e-05
3.97344e-05
0.000279358
1.17266e-11
5.64507e-12
6.1822e-12
6.88867e-10
1.88657e-08
5.0186e-09
3.3936e-08
0.000453858
0.000102
1.94294e-06
2.88085e-05
0.000184909
0.000229365
6.60056e-05
0.000527956
0.00106822
4.0313e-05
3.96982e-05
7.19839e-05
6.1224e-13
5.69418e-13
4.64122e-12
1.85263e-11
2.40807e-09
1.91518e-08
1.70505e-09
3.01535e-05
0.000829203
4.37007e-05
2.16662e-06
5.34317e-06
0.000225682
0.000623541
0.0030319
0.0030319
4.12147e-05
3.95339e-05
5.38239e-05
4.52932e-14
3.9732e-14
8.56181e-13
3.01438e-11
5.78591e-11
5.80507e-11
1.05935e-09
8.46443e-10
1.83213e-08
0.000933866
0.00126833
0.0012726
0.00013091
0.00106588
0.00301204
8.58655e-05
3.95196e-05
3.95197e-05
0.00171585
2.24478e-15
2.05664e-15
4.0151e-15
1.47091e-12
3.27913e-11
6.4167e-11
6.19634e-11
6.3206e-11
2.9782e-07
1.26372e-07
5.19147e-05
1.67968e-05
1.03548e-05
0.000324186
6.85766e-05
0.000108696
3.95549e-05
9.63936e-05
0.00171709
1.16728e-16
6.72849e-16
2.87976e-15
7.01713e-14
3.6257e-12
2.73801e-11
1.06432e-10
5.12488e-09
2.48706e-10
4.79871e-08
3.13873e-09
6.77212e-06
4.87463e-05
5.68344e-05
6.70688e-05
0.000197016
4.02602e-05
0.00145178
0.00171967
2.42555e-17
7.48669e-16
4.24623e-14
2.00696e-12
1.8367e-11
6.05846e-11
1.85848e-10
2.42437e-10
2.47588e-10
4.52506e-09
1.07499e-09
4.22798e-05
3.88849e-05
7.54725e-05
0.00190354
5.10777e-05
5.92361e-05
0.000763505
0.00010831
1.57952e-16
1.30107e-14
1.04177e-12
1.85035e-11
5.5625e-11
8.39467e-11
1.50082e-10
2.5268e-10
3.39619e-10
2.55631e-10
1.40767e-06
6.6121e-08
2.8996e-08
0.00202626
0.000587851
4.88156e-05
0.000153336
0.00170865
7.19796e-05
3.00379e-15
1.73889e-13
6.79595e-12
3.91087e-11
1.60653e-10
4.52467e-09
9.92886e-09
5.69296e-09
7.79753e-09
5.2761e-10
7.08285e-10
6.70596e-08
0.000459074
0.000263549
0.000110267
0.000325117
0.000130268
0.00134075
2.89274e-05
5.79889e-14
1.00691e-12
1.70723e-11
1.25882e-10
2.40419e-08
2.93201e-05
2.08176e-05
1.2104e-06
4.70508e-05
2.6041e-07
1.29959e-06
2.73671e-06
0.00235628
0.000312006
0.000581606
0.000144656
0.00120287
3.35597e-05
2.90425e-05
3.30255e-12
6.88888e-12
3.35419e-11
1.00238e-07
3.85449e-05
4.85909e-05
0.000114361
0.00145729
0.00145831
0.000569247
1.43339e-06
2.03419e-06
9.38625e-05
0.000472538
0.000603437
0.00108404
0.000975482
9.01811e-05
0.00114123
6.48627e-11
4.81375e-11
1.915e-09
1.04276e-06
3.46748e-05
3.38279e-05
0.00142101
0.00112151
0.00145541
0.00145325
5.04696e-07
4.17321e-07
5.32498e-07
0.00111531
0.000273306
0.00111833
0.000436481
0.0010342
0.00113772
1.98163e-11
1.15847e-07
3.76049e-07
2.10612e-06
2.80312e-06
0.00123456
0.000441762
1.33326e-05
1.55598e-05
0.00143332
0.00117372
3.57538e-07
2.11903e-07
0.000149327
0.0011571
0.000371991
0.000316177
0.00111197
4.66903e-06
5.97783e-11
1.40153e-08
0.00057091
0.00158093
2.52975e-05
0.00123758
3.93757e-06
6.32351e-05
4.00592e-05
2.93576e-07
0.00134705
0.000693343
2.41105e-07
4.03576e-07
1.77607e-05
0.000294757
0.000495495
5.38201e-07
5.37267e-07
8.82459e-12
5.38506e-10
0.000112567
0.00158087
0.000182512
2.33389e-06
2.33389e-06
2.70742e-05
6.11381e-05
1.73862e-08
8.22805e-08
0.00117055
0.000667915
8.56053e-05
6.88739e-07
5.55722e-07
6.67043e-07
5.37719e-07
5.37262e-07
3.0811e-11
4.95159e-11
1.69897e-09
0.000152978
0.00154209
2.34249e-06
2.37866e-06
2.81836e-06
1.10935e-06
2.01766e-08
3.70963e-09
3.23641e-09
0.000834671
0.00105037
0.000435326
8.32378e-07
3.84704e-06
5.48812e-07
5.37285e-07
2.64617e-11
7.48559e-10
1.20657e-06
0.00011169
0.000698584
0.00115717
0.000369436
0.000752197
4.23194e-05
8.5928e-06
1.09115e-08
2.24507e-11
2.79983e-11
6.92682e-07
0.000884273
0.000931035
0.000789633
0.000315534
0.000789963
1.02819e-10
3.62556e-08
0.000307475
0.00030739
0.000108611
0.000553405
0.00120348
1.65e-05
4.08254e-05
2.08708e-07
6.41372e-09
2.68439e-10
4.07531e-12
1.2519e-12
6.15602e-12
5.6072e-05
0.000830526
0.000433447
0.000906008
7.83091e-11
5.71667e-08
0.000292802
2.12937e-06
2.42843e-06
2.40158e-06
1.58388e-07
3.32342e-06
3.33368e-11
6.6474e-09
2.20168e-11
1.38319e-10
2.72875e-11
2.68318e-12
8.78046e-13
2.61703e-12
5.28971e-10
7.00578e-05
1.7902e-06
3.15177e-10
3.94681e-10
1.79327e-09
2.00808e-05
2.79966e-05
2.47643e-06
1.19084e-07
3.70246e-11
2.31598e-11
2.2001e-09
5.10112e-11
2.26605e-11
6.59161e-12
1.98469e-12
1.20843e-12
3.25257e-11
1.20116e-10
3.66713e-06
4.46085e-11
1.11156e-10
7.54855e-11
3.2343e-07
2.81105e-05
6.64719e-07
3.86447e-09
5.66161e-08
1.77858e-09
1.42222e-11
1.05684e-10
1.70335e-10
1.16764e-12
3.24456e-13
1.29119e-13
2.03905e-14
1.39823e-10
4.84045e-10
-8.62522e-14
-5.20931e-14
2.08082e-12
3.87456e-11
4.20952e-11
1.80947e-05
3.92284e-09
4.15639e-09
3.16753e-05
3.18329e-06
2.43349e-13
8.9298e-12
9.12285e-13
3.0465e-14
6.22102e-15
3.64408e-15
4.93529e-15
-1.26396e-16
-1.93539e-14
-5.95242e-14
-3.28088e-14
3.85656e-14
2.66643e-14
8.28577e-10
6.05539e-09
1.42036e-07
8.31068e-09
0.00012485
0.00012485
4.54423e-17
1.65813e-14
1.80674e-14
8.53102e-16
6.01956e-17
7.88396e-17
2.26542e-18
-5.35954e-16
-5.16821e-15
-1.83964e-14
-1.0381e-14
3.25019e-15
3.91361e-15
3.82252e-11
3.79401e-10
7.81262e-08
1.65944e-07
0.000120085
0.000124677
-4.34345e-24
1.61732e-19
2.68003e-19
2.06144e-18
3.5246e-19
7.325e-19
-1.81367e-18
-9.19458e-17
-8.4766e-16
-3.90942e-15
-2.08533e-15
1.15177e-16
1.95506e-16
2.46896e-37
-6.6618e-16
1.35431e-25
3.1251e-06
4.53322e-14
-4.25128e-18
-1.91311e-17
-3.4709e-21
-2.15126e-21
3.9382e-22
1.67036e-21
3.15517e-21
-1.93158e-19
-7.06834e-18
-8.46324e-17
-5.38225e-16
-2.73007e-16
2.07194e-18
3.83385e-18
-1.31221e-19
-4.76558e-16
3.99956e-08
1.88129e-12
5.16628e-15
-4.37499e-16
-1.2423e-17
-5.14797e-21
-3.50195e-22
-1.02179e-24
5.28275e-24
-1.6765e-23
-7.08301e-21
-2.80207e-19
-4.83892e-18
-4.44931e-17
-2.24909e-17
1.87396e-20
3.12592e-20
-1.66962e-19
-1.88144e-16
-1.23419e-15
1.79829e-10
-3.77282e-16
-4.60837e-16
-1.01704e-17
-4.05835e-21
-2.32372e-23
-4.47265e-25
-2.50802e-26
-5.9478e-25
-9.9172e-23
-5.09159e-21
-1.36162e-19
-1.91122e-18
-1.04769e-18
9.64856e-23
6.48447e-23
-3.11338e-20
-3.95763e-17
-3.28237e-16
3.42398e-11
-1.12924e-16
-1.73839e-16
-2.50392e-18
-1.05777e-21
-4.44669e-25
-1.56749e-26
-6.35866e-27
-2.68509e-27
-4.03222e-25
-3.00833e-23
-1.36266e-21
-3.17525e-20
-2.09626e-20
2.58604e-25
-3.80373e-26
-1.258e-21
-3.33025e-18
-3.33784e-17
8.82737e-13
-1.58047e-17
-2.08796e-17
-1.44152e-19
-5.12581e-23
-5.44776e-30
-5.14187e-29
-4.99349e-29
-8.06242e-31
-1.43994e-28
-2.03948e-26
-1.85735e-24
-8.36846e-23
-7.46379e-23
-2.54195e-30
-1.02187e-28
-6.52786e-24
-4.69389e-20
-5.59253e-19
3.21385e-15
-3.2491e-17
-7.41229e-19
-1.75254e-21
-3.47684e-25
-1.73857e-34
-1.69442e-35
-3.81184e-36
-1.70802e-36
-7.04092e-34
-1.57644e-31
-1.80579e-29
-8.24924e-28
-5.48395e-29
1
1
1
1
1
1
1
1
1
0.998504
0.990509
0.969041
0.994645
1
1
0.999924
0.998915
0.993823
0.997963
0.998473
1
0.999999
0.999999
1
1
1
1
1
1
1
1
1
0.972827
0.959098
0.969248
0.99886
0.999999
1
0.999891
0.999499
0.999469
0.881698
1
1
0.999842
1
1
1
1
1
1
1
1
1
1
0.999895
1
1
1
0.999989
0.999998
1
0.901645
0.882046
0.858049
1
1
0.99997
1
1
1
1
1
1
1
1
1
1
1
1
1
1
1
1
1
1
0.860969
0.97957
1
1
1
0.999997
1
1
1
1
1
1
1
1
1
1
1
1
1
1
1
1
1
0.999996
0.999999
1
1
1
0.999997
1
1
0.999888
1
1
1
1
1
1
1
1
1
1
1
1
1
1
1
1
1
1
1
1
1
1
0.995971
0.997348
1
1
1
1
1
1
0.999993
0.999887
0.999775
0.999638
1
1
1
1
1
1
1
1
1
1
1
0.997959
0.993941
1
1
1
1
1
0.999983
0.84552
0.273943
0.236935
0.764391
0.982304
0.998303
1
1
1
1
1
0.999999
0.999996
0.950558
0.993638
0.979156
0.986105
0.993059
0.993267
0.989466
0.992027
0.997874
0.975323
0.204065
0.261318
0.741251
0.860644
0.474076
0.920476
0.920476
0.672724
0.657108
0.952505
0.997349
0.997153
0.765476
0.542573
0.840682
0.997691
0.996587
0.908304
0.204169
0.204065
0.897422
0.963428
0.930893
0.833717
0.898238
0.787234
0.731361
0.936211
0.993803
0.963566
0.0664375
0.247053
0.465606
0.400511
0.997845
0.997738
0.295895
0.204356
0.886116
0.964526
0.720187
0.0558113
0.619551
0.654984
0.86062
0.695498
0.936163
0.993353
0.647378
0.0586601
0.13427
0.663612
0.747845
0.997854
0.997717
0.54562
0.901399
0.964927
0.96479
0.138957
0.055027
0.0550261
0.767665
0.86554
0.363525
0.910401
0.979168
0.177177
0.35117
0.287562
0.577289
0.460474
0.997828
0.804915
0.952212
0.964966
0.964963
0.514539
0.054938
0.0550205
0.0549836
0.769818
0.522821
0.363525
0.847906
0.983205
0.969581
0.827095
0.514998
0.562077
0.474174
0.924131
0.424281
0.533466
0.964561
0.899947
0.0598903
0.054929
0.0552898
0.0549697
0.698461
0.903946
0.480736
0.874346
0.811007
0.863103
0.723369
0.244192
0.44232
0.452954
0.108321
0.108314
0.939473
0.963721
0.606952
0.599947
0.054929
0.0549343
0.0549636
0.0568431
0.907841
0.458786
0.874335
0.954384
0.780634
0.925434
0.608434
0.47306
0.194911
0.519038
0.109492
0.764095
0.958465
0.274686
0.737041
0.0550581
0.0550705
0.155397
0.885015
0.907928
0.780927
0.665507
1
1
0.994765
0.979559
1
1
1
1
0.999994
0.861108
0.149432
0.273936
0.814111
0.757302
0.65355
0.556645
0.39974
0.412796
0.799741
0.969154
0.998577
0.947909
0.874086
1
1
0.992852
0.998786
1
1
1
0.999999
0.986282
0.279677
0.785737
0.577908
0.279948
0.800444
0.38766
0.122751
0.297683
0.593445
0.891701
0.991714
0.970344
0.774451
0.876855
1
0.999992
0.999999
1
1
1
1
0.999996
0.909468
0.320699
0.788342
0.277466
0.730524
0.840441
0.854163
0.859201
0.916231
0.851071
0.512959
0.413142
0.482058
0.0344078
0.0758647
1
1
0.976724
0.75797
0.89833
0.998724
0.997732
0.627619
0.61945
0.0375477
0.113628
0.693555
0.253985
0.00840168
0.0295917
0.654753
0.509248
0.00897477
0.212413
0.419001
0.000337085
0.000341101
0.00574968
0.999997
0.868069
0.855417
0.544155
0.833749
0.932788
0.0236587
0.0228003
0.0233684
0.0349194
0.494177
0.534114
0.0938976
0.000434754
0.000217657
0.000243616
0.000204106
0.00384177
0.0188414
0.000279368
0.000313745
0.00034512
0.0255544
0.619325
0.347498
0.970095
0.969624
0.288548
0.00753523
0.0910163
0.208202
0.0600851
0.203942
0.147935
0.069758
0.108821
0.0313907
0.000204351
0.00020377
0.000203768
0.000203826
0.000213832
0.000845987
0.000340164
0.00231968
0.0678693
0.0114651
0.364925
0.967403
0.00907115
0.0410362
0.0575886
0.000603077
0.000603077
0.000786431
0.00148819
0.000692433
0.000190205
0.0709732
0.107197
0.0508863
0.00020377
0.000203768
0.000203817
0.0430339
0.0849277
0.0357369
0.0307747
0.000116858
0.00145905
0.0841068
0.828181
0.00040243
0.00107398
0.0125496
0.00478527
0.00963719
0.058708
0.0685037
0.000268302
0.000182168
0.000182168
0.00024483
0.096484
0.000208525
0.000232952
0.0642688
0.0786724
2.61764e-05
2.68962e-05
0.00016533
0.000117093
0.000256157
0.00153462
0.634505
0.000381791
0.000381791
0.00239166
0.0523342
0.0684686
0.0685158
0.0682205
0.000185598
0.000182546
0.00044044
0.0218885
0.0023743
0.0718808
0.059944
3.61479e-06
1.36672e-05
6.52699e-05
0.000373181
0.000473111
0.000386165
0.000119893
0.000370137
0.533013
0.070901
0.000383977
0.0317485
0.0683554
0.0628858
0.000237924
0.0190907
0.000190329
0.000220766
0.0244553
0.024457
0.0134003
0.000698558
0.0322852
4.32955e-07
0.000204021
0.000203172
1.42907e-09
3.24954e-09
0.00030499
9.49429e-05
0.000366049
0.503376
0.00029483
0.0024566
0.000957912
0.0125167
3.56262e-05
0.00160083
0.00113877
0.0027873
0.000361221
0.0219046
0.023786
0.00615776
0.000878253
0.00569921
1.72396e-07
1.63065e-08
2.18436e-09
1.42907e-09
4.48327e-09
1.50829e-09
7.47711e-05
0.0376156
0.401945
4.01523e-05
0.000122198
9.46546e-05
0.000486633
2.6683e-06
0.00327493
0.00730707
0.000739803
0.000467898
9.93689e-05
9.9426e-05
0.000116382
0.000463942
5.16182e-07
1.25095e-08
9.97959e-07
4.81059e-07
8.67715e-08
4.08445e-09
8.7271e-11
8.95304e-05
0.160824
0.0656001
3.55922e-05
3.67345e-05
0.00276913
0.00294979
2.31477e-06
2.31786e-06
7.39135e-05
0.00722153
0.00700083
0.000129738
8.8972e-05
0.00309088
3.44437e-07
2.58145e-07
4.62178e-08
1.06727e-08
3.41025e-10
1.3387e-10
1.28102e-10
2.55559e-10
0.000182743
0.400979
0.286899
0.000983602
3.80692e-05
0.00277756
1.9924e-05
6.80268e-06
2.63285e-06
3.26564e-06