/*--------------------------------*- C++ -*----------------------------------*\
| =========                 |                                                 |
| \\      /  F ield         | OpenFOAM: The Open Source CFD Toolbox           |
|  \\    /   O peration     | Version:  v1912                                 |
|   \\  /    A nd           | Website:  www.openfoam.com                      |
|    \\/     M anipulation  |                                                 |
\*---------------------------------------------------------------------------*/
FoamFile
{
    version     2.0;
    format      ascii;
    class       volScalarField;
    location    "0.9";
    object      p;
}
// * * * * * * * * * * * * * * * * * * * * * * * * * * * * * * * * * * * * * //

dimensions      [1 -1 -2 0 0 0 0];


internalField   nonuniform List<scalar> 
9072
(
1481.34
1495.72
1469.22
1434.53
1395.47
1353.78
1310.66
1266.11
1219.32
1167.69
1108.7
1042.89
979.669
913.499
853.679
804.422
766.682
724.561
741.626
742.44
770.593
783.721
789.15
1426.1
1439.28
1411.05
1375.53
1336.73
1295.12
1251.85
1207.38
1160.78
1109.68
1052.34
986.906
920.59
852.397
791.468
742.111
705.286
658.432
660.394
672.918
709.895
724.704
730.648
1370.95
1384.18
1353.92
1317.14
1277.96
1236.63
1193.62
1149.51
1103.48
1053.3
996.527
931.098
860.43
788.512
724.986
676.386
642.865
619.472
587.761
611.302
650.686
667.146
673.086
1315.94
1329.4
1295.54
1259.23
1219.76
1178.3
1135.39
1091.83
1046.83
997.605
940.459
873.288
798.755
722.106
654.745
605.948
574.304
558.353
533.123
558.788
594.553
611.796
616.569
1260.93
1272.98
1234.34
1201.81
1162.42
1119.98
1076.85
1034.13
990.724
942.553
884.154
814.301
736.013
652.57
579.307
531.303
500.535
482.12
473.731
502.729
540.222
559.049
561.116
1206.54
1215.41
1173.09
1145.74
1106.03
1061.56
1017.75
976.097
935.01
888.372
827.623
753.4
672.126
577.609
495.635
452.115
423.609
402.144
400.94
439.613
487.265
509.366
506.571
1154.49
1159.56
1115.38
1092.07
1050.32
1002.67
957.621
917.221
879.508
835.297
769.951
689.724
607.625
494.58
398.218
368.815
344.808
316.743
317.193
370.768
435.765
462.966
450.904
1106.6
1108.37
1064.11
1040.99
994.64
942.696
895.756
856.781
823.988
784.404
711.613
632.262
568.056
454.398
307.133
286.384
266.455
223.146
217.923
294.135
388.445
423.799
388.153
740.643
754.452
635.521
508.491
544.667
518.81
460.722
571.531
605.101
584.341
550.491
533.617
491.917
268.92
290.451
380.618
416.473
427.152
521.285
672.375
702.062
469.913
397.946
473.969
449.932
379.777
497.371
541.009
549.445
530.009
510.95
357.014
144.737
146.085
299.323
368.271
354.98
433.013
619.969
610.916
339.987
361.547
437.214
417.311
316.88
426.36
492.874
542.094
522.04
417.687
208.217
54.0178
49.4587
164.542
332.993
273.031
294.199
582.087
525.891
321.84
352.424
450.042
397.088
246.536
356.756
436.059
522.554
476.796
310.634
74.27
38.5666
31.1673
63.0545
270.595
208.3
201.804
537.329
501.083
315.618
343.695
511.633
371.905
200.134
275.742
334.215
435.65
406.091
216.88
19.5671
28.869
13.7844
19.821
207.429
208.566
192.089
476.02
457.54
250.229
351.651
490.807
320.265
158.445
187.709
240.195
335.268
350.405
137.175
7.38664
22.8066
2.69697
-7.40485
176.741
213.643
202.931
382.08
306.444
140.366
290.033
436.839
129.067
100.701
137.984
200.606
225.652
273.603
107.894
11.2694
16.1168
-0.94089
-14.5563
138.23
215.437
202.502
196.016
24.452
-39.815
118.95
350.44
11.233
70.1691
113.412
163.671
139.666
165.74
76.9452
16.2011
13.1222
-0.365995
-9.84768
178.246
211.449
196.012
1031.67
1051.14
1010.22
978.32
921.949
863.251
812.889
775.823
752.697
716.069
664.484
618.679
530.235
388.462
257.254
210.364
188.089
127.412
98.5107
184.164
339.583
384.522
348.641
970.728
977.12
936.382
872.317
792.32
719.145
658.303
622.38
640.045
639.749
574.103
438.411
338.128
278.209
201.475
175.901
156.769
68.1193
26.5583
77.4698
212.579
232.308
193.646
938.727
928.186
858.65
749.206
645.559
556.965
475.069
414.833
423.717
390.366
203.578
260.565
96.1271
-27.6191
62.2427
83.8841
95.7649
44.2046
27.0316
59.2025
97.2864
20.8736
8.24449
941.811
909.577
792.128
605.292
480.086
383.984
274.23
141.021
86.5029
129.24
117.43
127.946
18.6036
-37.4975
7.08539
5.69521
4.8961
14.0618
5.45567
3.77335
8.17116
5.79642
6.15741
836.577
927.457
781.435
474.532
342.392
191.975
103.918
89.1943
79.6025
109.241
120.089
115.23
119.158
4.49423
0.385827
1.86843
3.44521
4.24244
3.7138
3.52847
4.17918
4.86884
4.98551
350.895
564.137
516.117
237.019
50.5858
31.1983
28.3032
32.1201
31.7862
30.647
29.5269
50.1904
54.5845
5.90732
1.09654
1.93563
2.84425
3.7973
3.68412
3.65206
3.9827
4.05914
3.54864
61.5015
87.1699
139.228
47.5492
13.8684
25.3801
24.1226
23.4956
26.5265
25.3738
6.79106
1.24724
3.67084
5.18552
3.71023
2.35648
2.72252
4.08477
4.31208
1.97524
0.293266
2.66981
-0.511872
48.8794
42.3611
47.0057
12.7427
10.3298
9.02752
17.1452
23.255
23.6985
15.408
-5.23868
0.926445
3.1176
3.72141
5.19072
3.6278
2.95197
3.16084
1.68168
-0.791327
-1.17036
-0.9632
-1.1552
44.6161
46.5739
44.1184
11.2346
7.74185
6.80051
10.1489
16.2782
10.1399
1.42864
-3.27541
-0.418136
2.12109
2.86303
1.96359
0.302167
1.95312
-1.03204
-1.43971
-1.37089
-1.3125
-1.22786
-1.29478
41.5895
43.2673
41.6767
20.0179
3.31956
3.18932
3.12543
3.1426
-0.908669
-2.19384
-2.20495
-1.49654
-0.412368
-1.24021
-6.80881
-3.29172
-2.82421
-1.58848
-1.58704
-1.51809
-1.46244
-1.40614
-1.37414
37.2337
40.9053
40.0797
4.69081
1.30122
-0.211491
-1.69369
-1.71841
-1.68416
-1.61609
-1.16352
-2.75948
-4.57766
-3.22677
-2.35857
-2.24771
-2.30101
-1.7294
-1.71533
-1.67624
-1.61521
-1.56372
-1.52508
29.0804
35.0497
29.2386
-0.775286
-0.646566
-1.13947
-1.6537
-2.05252
-2.00165
-1.48558
0.575983
-0.988235
-3.33731
-2.56691
-2.22066
-2.05042
-2.17369
-2.03628
-1.92082
-1.84023
-1.77242
-1.72118
-1.68443
14.4439
25.0736
14.3887
-1.53934
-1.71646
-1.75099
-2.1336
-2.58722
-2.44741
-2.30376
-1.95894
-1.29939
-2.81249
-2.63046
-2.12981
-1.91354
-2.21574
-2.2469
-2.10755
-1.997
-1.92211
-1.87034
-1.83448
-5.71255
-3.37486
-15.2409
-3.82389
-3.07567
-3.04619
-2.80207
-3.16299
-3.00643
-2.76654
-2.73177
-2.62066
-4.14928
-3.63983
-2.79202
-2.44447
-2.41948
-2.38643
-2.23453
-2.12464
-2.05516
-2.00711
-1.97312
-8.0828
-28.9565
-58.7161
-5.10858
-5.1008
-4.80636
-4.77586
-5.67561
-4.74112
-2.81137
-3.63015
-4.5425
-6.47046
-4.27711
-3.22754
-2.95081
-2.53093
-2.40152
-2.30075
-2.22448
-2.17121
-2.13141
-2.10156
-5.41584
-16.2081
-35.222
-6.59567
-7.05692
-7.63575
-10.8639
-15.2463
-14.5879
-10.6538
-15.139
-9.58497
-3.86555
-3.72292
-3.17774
-2.97829
-2.52366
-2.41228
-2.35629
-2.31138
-2.27532
-2.24605
-2.22245
-8.68559
-12.6641
3.22498
-8.11341
-9.83571
-14.3728
-23.8553
-31.3131
-29.7554
-27.1162
-26.3168
-8.18251
-3.95386
-3.41364
-2.88087
-2.70953
-2.48435
-2.44385
-2.41597
-2.39297
-2.37287
-2.355
-2.33902
-17.8148
-16.8862
-7.71318
-9.03804
-15.7251
-24.7313
-42.173
-50.8826
-46.042
-32.1075
-24.4716
-2.16974
-3.10764
-2.80603
-2.6409
-2.56201
-2.49778
-2.48566
-2.47934
-2.47431
-2.46882
-2.46228
-2.45454
-10.7117
-12.9351
-14.6457
-16.4809
-18.1506
-25.7707
-45.1567
-55.0181
-48.0358
-25.6154
-8.09013
-0.488815
-2.58427
-2.50035
-2.49564
-2.51618
-2.52602
-2.53802
-2.54969
-2.55982
-2.56729
-2.57147
-2.57206
-8.01222
-10.2856
-10.2976
-13.1815
-15.6402
-20.8291
-34.3759
-42.9797
-35.5519
-15.831
-3.76716
0.257815
-2.29676
-2.28472
-2.38782
-2.49621
-2.56424
-2.60423
-2.63135
-2.65329
-2.67166
-2.68569
-2.69445
0.544398
-8.97658
-12.1673
-11.1377
-11.9175
-13.5367
-19.5025
-24.3216
-20.2388
-9.97234
-2.85164
-1.31869
-2.07423
-2.12797
-2.33485
-2.52741
-2.64239
-2.70037
-2.73174
-2.75846
-2.78474
-2.8077
-2.82435
47.6702
-12.8235
-7.43071
-8.32197
-8.2041
-7.93617
-9.3282
-12.7165
-13.7599
-9.74422
-3.86402
-0.881918
-1.75487
-2.10017
-2.41356
-2.66796
-2.81708
-2.85843
-2.86102
-2.87771
-2.90821
-2.9398
-2.96419
79.862
-7.14264
-6.79172
-6.68495
-5.678
-4.31485
-4.67101
-7.99902
-14.3887
-16.8093
-15.8791
-3.20266
-2.85946
-2.53194
-2.77095
-3.05712
-3.23149
-3.1689
-3.03992
-3.00855
-3.04217
-3.08432
-3.11656
4.80274
-6.22538
-6.96371
-6.69714
-5.02574
-3.41236
-3.29591
-7.69249
-14.4964
-19.789
-19.9025
-6.42673
-4.16428
-3.40878
-3.47329
-3.86038
-4.2764
-4.10931
-3.33372
-3.13998
-3.18858
-3.24589
-3.28491
-6.24543
-8.51783
-8.24496
-8.4649
-8.01635
-5.30453
-1.06356
-5.46019
-8.92918
-6.68928
-7.41171
-6.10879
-4.56781
-4.01693
-4.07886
-4.45167
-4.86208
-4.76163
-4.14532
-3.22834
-3.36283
-3.43571
-3.47401
-9.04591
-7.3336
-9.8952
-11.1546
-11.4922
-7.01283
-2.47392
-3.65833
-4.46675
-5.49431
-5.78963
-5.19983
-4.51653
-4.15558
-4.08055
-4.29175
-4.81039
-4.68317
-4.33585
-3.5845
-3.63532
-3.66942
-3.68595
-9.88014
-7.87117
-11.0274
-13.9812
-16.2128
-5.79773
-1.95025
-2.3714
-3.47865
-4.44604
-4.91108
-4.79409
-4.51223
-4.27053
-4.16721
-4.34761
-4.89187
-5.21632
-4.38642
-4.13624
-3.97588
-3.93089
-3.91074
-13.6352
-11.7237
-13.3737
-15.626
-18.1915
-13.5281
-2.13135
-1.98914
-3.10963
-4.13902
-4.69077
-4.72789
-4.66293
-4.56247
-4.50956
-4.6631
-5.11657
-5.42564
-4.95607
-4.46166
-4.26848
-4.17982
-4.13095
-16.6923
-15.7918
-16.8476
-13.763
-7.77888
-2.09996
0.0472635
-1.49442
-2.99293
-4.17207
-4.73361
-4.88901
-4.89165
-4.85552
-4.86202
-4.94575
-5.11665
-5.11007
-4.88368
-4.65341
-4.49708
-4.39935
-4.3361
-18.7284
-19.56
-18.5208
-9.96183
18.7993
0.846721
-2.00174
-2.36237
-3.59738
-4.7006
-5.13894
-5.26887
-5.27067
-5.24071
-5.22686
-5.23406
-5.23485
-5.14616
-4.98249
-4.81973
-4.68955
-4.59382
-4.52474
-15.0281
-19.0825
-16.8885
-9.38005
-4.91499
-5.36116
-4.63725
-4.54916
-5.11264
-5.7099
-5.92442
-5.94606
-5.86183
-5.75445
-5.6522
-5.55073
-5.43603
-5.29164
-5.13301
-4.98681
-4.86582
-4.77114
-4.69895
-5.3223
-14.712
-10.0192
-7.55061
-6.80594
-6.83351
-6.65667
-6.62284
-6.7798
-6.91394
-7.07842
-7.08854
-6.84056
-6.51209
-6.19525
-5.92809
-5.69511
-5.4879
-5.30685
-5.1551
-5.03246
-4.93575
-4.86077
18.5774
-3.2299
-5.85045
-6.55999
-7.36223
-7.58689
-8.16428
-8.33948
-8.31399
-8.27112
-8.8082
-9.30121
-8.6178
-7.72624
-6.95735
-6.37709
-5.98968
-5.70393
-5.48659
-5.31908
-5.1894
-5.08895
-5.01133
19.4388
-1.63774
-5.02549
-6.18939
-7.3205
-8.21498
-8.94824
-9.28404
-9.34523
-9.51049
-10.849
-12.5566
-11.1249
-9.11604
-7.78798
-6.85189
-6.28185
-5.91148
-5.65536
-5.47064
-5.33366
-5.23017
-5.15109
11.3655
-3.44958
-5.11187
-6.38972
-7.90077
-8.94572
-9.59315
-9.89893
-10.0172
-10.2894
-11.5834
-13.4485
-12.6208
-10.7347
-8.41999
-7.23815
-6.50939
-6.0774
-5.79546
-5.60085
-5.46124
-5.35807
-5.28006
4.21402
-1.22636
-4.73921
-6.63971
-8.31495
-10.0429
-10.9305
-10.7328
-10.4102
-10.3888
-10.9908
-12.0082
-11.9636
-10.5391
-8.46683
-7.38554
-6.61466
-6.17476
-5.89303
-5.70271
-5.56911
-5.47165
-5.39814
-0.181004
-0.38452
-3.27808
-5.32188
-7.50484
-10.5585
-12.1607
-11.2871
-10.2987
-10.0041
-10.0888
-10.3185
-10.0384
-9.28024
-8.17293
-7.2743
-6.58764
-6.19814
-5.94456
-5.7749
-5.6573
-5.5713
-5.50563
-1.33846
-0.719858
-2.09959
-4.20105
-6.52186
-9.82307
-10.9142
-10.1338
-9.34574
-9.07162
-8.97234
-9.12724
-8.73815
-8.30894
-7.62597
-6.96467
-6.46425
-6.16103
-5.95843
-5.82325
-5.72923
-5.65877
-5.60331
-2.17503
-2.11616
-3.24083
-5.03673
-6.74957
-9.23825
-8.90343
-7.84474
-7.91089
-7.96096
-7.9474
-7.91629
-7.81479
-7.44686
-7.02095
-6.61498
-6.2935
-6.08676
-5.94968
-5.85727
-5.7898
-5.7365
-5.69256
-3.19175
-3.52398
-4.46844
-5.88356
-7.35764
-8.59328
-7.31778
-6.78827
-7.03214
-7.18983
-7.17687
-6.93778
-6.76782
-6.75542
-6.53825
-6.28155
-6.10478
-5.99912
-5.93328
-5.8843
-5.8431
-5.80702
-5.77534
-4.74912
-4.60856
-5.19901
-5.96417
-6.77053
-7.44149
-7.12962
-6.75603
-6.83019
-7.07982
-6.85248
-6.21924
-6.09379
-6.21248
-6.10129
-5.97775
-5.93291
-5.92913
-5.92477
-5.91163
-5.89351
-5.87373
-5.85417
-6.09563
-6.74257
-5.68217
-5.80837
-6.19971
-6.94041
-7.61334
-6.81203
-6.62303
-8.32891
-8.03118
-5.9494
-5.79418
-5.84843
-5.80026
-5.78597
-5.85268
-5.90831
-5.93694
-5.94727
-5.94711
-5.94126
-5.93249
367.744
471.851
570.744
527.179
135.349
91.1079
151.749
171.985
24.1341
30.9395
32.7904
40.8891
9.08164
19.3464
21.1979
19.5077
3.14598
-0.427818
-4.44233
0.770292
-0.743813
-0.95449
-1.13022
-1.54346
-1.33383
-1.26136
-1.42422
-1.55765
-1.30687
-1.37823
-1.65581
-1.79394
-1.31695
-1.37628
-1.69298
-2.08399
-1.30955
-1.3005
-1.33595
-1.45936
-1.50031
-1.49797
-1.51276
-1.55334
-1.66632
-1.66433
-1.6701
-1.68141
-1.81592
-1.81072
-1.80903
-1.80982
-1.95338
-1.94577
-1.94013
-1.93586
-2.08223
-2.07364
-2.06622
-2.05963
-2.2055
-2.19719
-2.18946
-2.18215
-2.32601
-2.31893
-2.3119
-2.30492
-2.44639
-2.44118
-2.43559
-2.42969
-2.56925
-2.56631
-2.56262
-2.55822
-2.69713
-2.69663
-2.69498
-2.69221
-2.83239
-2.83425
-2.83454
-2.83329
-2.97718
-2.9811
-2.98302
-2.98293
-3.1336
-3.13903
-3.14197
-3.14249
-3.30384
-3.3097
-3.31272
-3.31309
-3.48979
-3.49413
-3.49594
-3.49546
-3.69047
-3.69077
-3.68993
-3.68819
-3.89858
-3.89304
-3.88827
-3.88441
-4.1036
-4.09215
-4.08286
-4.07563
-4.29852
-4.28246
-4.26922
-4.25852
-4.48115
-4.46202
-4.44595
-4.43268
-4.65167
-4.63052
-4.61254
-4.59749
-4.81072
-4.78807
-4.76857
-4.75202
-4.95912
-4.93527
-4.9145
-4.89661
-5.09777
-5.07328
-5.05179
-5.03302
-5.22739
-5.2031
-5.18166
-5.16279
-5.34821
-5.32506
-5.30453
-5.28635
-5.46037
-5.43921
-5.42035
-5.40355
-5.56423
-5.54578
-5.52921
-5.51435
-5.66075
-5.64553
-5.63173
-5.61924
-5.75146
-5.73979
-5.72906
-5.71924
-5.83828
-5.83022
-5.82265
-5.8156
-5.92391
-5.9192
-5.91459
-5.91017
212.526
-70.7878
-73.3011
-65.1675
156.298
52.0031
57.9367
96.2536
113.1
62.7299
69.7509
57.3895
25.4403
4.79444
-4.85317
18.4455
201.727
199.45
160.722
36.8935
-73.5293
-76.3624
-80.7926
-55.5085
57.3492
80.5453
217.8
180.199
56.6113
59.4198
56.5497
50.9425
29.7054
42.3602
94.2747
139.628
82.2312
58.1798
-14.5181
-60.1123
-86.2627
-90.0881
-96.9831
97.3687
113.569
214.925
90.5942
31.992
39.6136
38.2184
37.4572
36.3701
21.997
21.3251
40.9752
36.7091
19.878
7.16815
-13.9001
-19.8841
-20.1045
-31.9424
67.442
75.1442
81.2306
16.1217
5.31818
11.6558
-18.8274
24.3661
23.5395
17.6656
10.6938
8.87778
13.1733
10.8096
9.24449
0.718197
-11.6312
10.8904
40.8247
80.2168
53.5909
15.531
8.21087
1.97102
1.66353
-2.16949
3.30817
0.412567
2.41265
1.49882
2.15982
2.47812
3.35429
-1.41302
-1.46021
-0.811084
11.8527
13.8313
12.3908
3.76764
-0.2667
-0.777468
1.24555
0.906964
1.60134
11.6033
0.502701
3.08181
0.640375
1.32724
1.78016
2.43326
-1.55447
-1.62008
-1.38
-1.11525
-0.822616
-0.356803
-0.608301
-0.734033
-0.83101
0.0292093
0.323538
0.835758
-1.31644
-7.89462
1.51821
0.428659
0.767715
1.35624
1.99744
-1.96364
-1.84644
-1.51924
-1.30488
-1.20961
-1.04784
-0.913656
-0.931545
-1.05855
-0.713811
-0.225678
0.991243
0.577646
-3.56323
-0.175797
-0.182239
0.128491
0.757601
1.32182
-2.10147
-1.78379
-1.53158
-1.38828
-1.29199
-1.19783
-1.0992
-1.14757
-1.46104
-1.49966
-1.13741
-0.953573
-1.76425
-2.79754
-1.76411
-1.22117
-0.763797
0.157084
0.207987
-1.66263
-1.65448
-1.56158
-1.46905
-1.39128
-1.32882
-1.29288
-1.50593
-2.50815
-2.8347
-3.58528
-3.20993
-3.28016
-3.73422
-2.98014
-2.13996
-1.73155
-0.878116
-0.749466
-1.61432
-1.65233
-1.62443
-1.57165
-1.51864
-1.47289
-1.47038
-1.94254
-3.8486
-4.73015
-4.51732
-3.59875
-3.79057
-4.10133
-3.54053
-2.74356
-2.50985
-2.13482
-2.08652
-1.69974
-1.71743
-1.7046
-1.67321
-1.63977
-1.61652
-1.65462
-2.02572
-2.69618
-3.15035
-3.24289
-3.0902
-3.52505
-3.8691
-3.5276
-2.92542
-2.71811
-2.6299
-3.31384
-1.81247
-1.81353
-1.8007
-1.77685
-1.75052
-1.73222
-1.74769
-1.92706
-2.12474
-2.32756
-2.51768
-2.74678
-3.12389
-3.34782
-3.20344
-2.91115
-2.71254
-2.53481
-2.63858
-1.9312
-1.92219
-1.90628
-1.88324
-1.85636
-1.83008
-1.80589
-1.8208
-1.80073
-1.9589
-2.24202
-2.54312
-2.77808
-2.8747
-2.81249
-2.8202
-2.69649
-2.40982
-2.13225
-2.05151
-2.03684
-2.01785
-1.99339
-1.96415
-1.93136
-1.89504
-1.85553
-1.80448
-1.89167
-2.14842
-2.42918
-2.57268
-2.62199
-2.5446
-3.17714
-2.98988
-2.49932
-2.03729
-2.17276
-2.15531
-2.13418
-2.10813
-2.07712
-2.04186
-2.00428
-1.9699
-1.94814
-2.00537
-2.19785
-2.51022
-2.78638
-2.95491
-3.06945
-3.13906
-3.06252
-2.71202
-2.42278
-2.29563
-2.27737
-2.25511
-2.22796
-2.19603
-2.16075
-2.12617
-2.10164
-2.10616
-2.18067
-2.35062
-2.57663
-2.80109
-3.09812
-3.14317
-2.9126
-2.9414
-2.89108
-2.89159
-2.42136
-2.40354
-2.38095
-2.35316
-2.32062
-2.28561
-2.25399
-2.23749
-2.25363
-2.31899
-2.43166
-2.56254
-2.70324
-2.85589
-3.00392
-2.88731
-2.96401
-3.15395
-3.1448
-2.55133
-2.53467
-2.51225
-2.48407
-2.4507
-2.41474
-2.38334
-2.3701
-2.39183
-2.45256
-2.53203
-2.60916
-2.68874
-2.8171
-3.29037
-3.26952
-3.1872
-3.25509
-3.18429
-2.68691
-2.67169
-2.64972
-2.62132
-2.58661
-2.54763
-2.51243
-2.49758
-2.52512
-2.5939
-2.66244
-2.7037
-2.73539
-3.13651
-3.74882
-3.65017
-3.36058
-3.02416
-3.18695
-2.82944
-2.81547
-2.79396
-2.76568
-2.7295
-2.68576
-2.64314
-2.621
-2.6568
-2.75471
-2.82387
-2.83957
-2.7965
-3.65484
-3.97005
-3.83063
-3.41876
-3.22074
-3.31201
-2.98011
-2.96663
-2.94511
-2.91806
-2.88201
-2.83371
-2.77841
-2.74275
-2.81504
-2.98956
-3.03803
-3.02467
-3.01458
-3.76279
-4.03059
-3.96821
-3.65864
-3.64798
-3.56332
-3.13992
-3.12552
-3.10242
-3.07968
-3.04854
-3.00097
-2.94812
-2.96534
-3.06859
-3.3217
-3.31892
-3.25272
-3.25801
-3.46273
-3.76979
-4.08631
-4.18278
-4.16731
-3.86227
-3.3098
-3.29291
-3.26385
-3.25278
-3.23538
-3.20186
-3.25078
-3.36561
-3.41772
-3.55083
-3.51635
-3.44639
-3.42083
-3.40277
-3.49829
-4.23585
-4.56546
-4.37744
-3.9017
-3.49109
-3.47333
-3.42641
-3.42872
-3.44847
-3.48229
-3.6069
-3.6182
-3.6647
-3.70088
-3.64521
-3.58231
-3.55342
-3.6412
-3.72626
-4.10815
-4.38174
-4.18546
-3.73673
-3.68467
-3.68082
-3.67261
-3.65583
-3.69822
-3.82561
-3.86558
-3.83712
-3.82953
-3.84483
-3.81188
-3.71318
-3.66693
-3.70184
-3.91506
-4.12755
-4.23904
-3.97191
-3.63922
-3.88142
-3.88903
-3.94821
-3.92116
-3.88862
-4.06239
-4.12986
-4.0581
-3.98811
-3.97031
-3.9652
-3.91836
-3.82224
-3.82833
-3.98316
-4.07262
-4.08722
-3.97913
-3.80332
-4.0691
-4.06925
-4.09621
-4.11806
-4.07128
-4.16197
-4.27468
-4.20495
-4.12091
-4.09735
-4.09458
-4.09347
-4.07944
-4.07375
-4.15349
-4.1848
-4.19882
-4.12763
-4.02246
-4.24741
-4.23724
-4.23441
-4.25634
-4.26883
-4.26731
-4.31437
-4.2708
-4.2367
-4.22702
-4.22812
-4.2337
-4.25037
-4.2889
-4.33143
-4.36069
-4.36153
-4.29894
-4.20769
-4.41828
-4.40342
-4.40035
-4.43791
-4.44668
-4.42834
-4.39779
-4.3779
-4.36497
-4.36074
-4.36103
-4.36653
-4.38047
-4.40856
-4.45172
-4.50237
-4.48834
-4.39576
-4.39012
-4.58131
-4.56493
-4.56667
-4.58493
-4.58498
-4.55311
-4.5315
-4.51019
-4.49969
-4.49343
-4.49121
-4.49368
-4.50161
-4.51508
-4.53185
-4.54821
-4.54805
-4.51161
-4.50214
-4.7336
-4.71234
-4.70929
-4.72516
-4.73261
-4.7124
-4.67377
-4.64653
-4.63216
-4.62322
-4.61853
-4.61777
-4.62046
-4.6253
-4.62952
-4.62963
-4.62587
-4.61241
-4.59115
-4.87614
-4.85115
-4.84821
-4.87849
-4.90706
-4.9043
-4.84622
-4.78632
-4.76189
-4.75013
-4.74372
-4.74066
-4.73985
-4.74001
-4.73949
-4.73689
-4.73252
-4.72455
-4.71248
-5.01147
-4.9845
-4.97668
-5.01235
-5.06568
-5.08151
-5.0142
-4.92017
-4.8873
-4.87485
-4.8679
-4.86354
-4.86069
-4.85844
-4.85588
-4.85243
-4.84836
-4.8436
-4.83685
-5.14108
-5.11318
-5.09911
-5.1076
-5.13997
-5.15307
-5.11035
-5.03481
-5.00977
-4.9993
-4.99233
-4.98712
-4.983
-4.97943
-4.97592
-4.97221
-4.96848
-4.9651
-4.9604
-5.26528
-5.23736
-5.22015
-5.21346
-5.2154
-5.21237
-5.19871
-5.15748
-5.1364
-5.12543
-5.11762
-5.11149
-5.10643
-5.10201
-5.09794
-5.09408
-5.09049
-5.08749
-5.08354
-5.38388
-5.35711
-5.33871
-5.32718
-5.3196
-5.31026
-5.3079
-5.28325
-5.26392
-5.25181
-5.2431
-5.23621
-5.23045
-5.22545
-5.22098
-5.21692
-5.2133
-5.21027
-5.2066
-5.49676
-5.47227
-5.4544
-5.44166
-5.43169
-5.4221
-5.41678
-5.40148
-5.38763
-5.37663
-5.36795
-5.36078
-5.35464
-5.34924
-5.34444
-5.34015
-5.3364
-5.33324
-5.32989
-5.6043
-5.58308
-5.56701
-5.55511
-5.54544
-5.53668
-5.52944
-5.51943
-5.50916
-5.49995
-5.49196
-5.48495
-5.47869
-5.47304
-5.46795
-5.46341
-5.45946
-5.45621
-5.45327
-5.70734
-5.69014
-5.67684
-5.6667
-5.65864
-5.65155
-5.64498
-5.63763
-5.62998
-5.62254
-5.61551
-5.6089
-5.60266
-5.59682
-5.59144
-5.58657
-5.58235
-5.57898
-5.57645
-5.80693
-5.79416
-5.78422
-5.77665
-5.77094
-5.76595
-5.76115
-5.75604
-5.75055
-5.74477
-5.73877
-5.73264
-5.72648
-5.72043
-5.71468
-5.70942
-5.70481
-5.70117
-5.69893
-5.90459
-5.89625
-5.88992
-5.88544
-5.88246
-5.88005
-5.87749
-5.87463
-5.87118
-5.86698
-5.862
-5.85631
-5.85015
-5.84379
-5.83755
-5.83174
-5.82661
-5.82242
-5.81989
1505.04
1483.41
1452.79
1415.33
1374.89
1332.35
1288.6
1243.11
1194.29
1139.14
1075.95
1011.13
946.409
882.57
827.336
784.997
743.332
734.103
733.234
759.518
778.144
787.492
789.683
1448.71
1426.31
1393.97
1356.43
1316.25
1273.62
1229.8
1184.48
1135.95
1082.2
1019.95
954.035
886.106
820.742
765.182
722.824
680.229
662.739
653.298
696.554
718.559
728.719
731.18
1393.51
1370.46
1336.05
1297.73
1257.6
1215.27
1171.71
1126.84
1079.05
1025.99
964.729
896.301
824.023
755.194
698.562
657.883
632.304
605.109
586.894
636.665
660.399
671.324
672.942
1338.81
1313.83
1277.69
1239.76
1199.28
1156.96
1113.69
1069.65
1022.96
970.281
907.993
836.862
760.167
686.404
627.955
588.18
564.879
546.446
536.759
580.855
604.782
615.7
614.398
1283.75
1254.03
1218.16
1182.85
1141.38
1098.4
1055.44
1012.71
967.57
914.943
850.352
776.556
694.54
613.092
552.427
514.411
489.723
476.378
483.17
524.714
551.725
562.121
554.12
1228.33
1193.13
1159.61
1127.3
1083.85
1039.43
996.662
955.755
912.907
860.258
791.365
714.073
625.956
531.938
470.001
437.389
411.343
397.657
416.023
467.343
501.416
510.934
489.787
1174.16
1135.25
1104.46
1073.21
1026.38
979.629
936.837
898.401
859.033
806.314
729.672
649.802
554.272
436.965
378.295
358.673
329.62
310.497
338.795
407.836
453.851
462.179
416.616
1123.42
1083.86
1053.9
1020.06
968.31
918.346
875.234
840.063
806.109
755.974
665.719
600.935
521.013
366.891
287.197
281.619
244.668
208.863
248.157
346.204
411.439
424.338
327.27
743.177
715.651
549.709
521.447
542.914
481.184
514.12
594.802
596.171
580.293
533.364
533.797
381.906
236.896
350.57
382.689
433.41
450.951
549.093
678.058
602.745
398.06
438.691
476.079
408.937
428.144
523.79
544.539
543.927
519.343
459.372
238.317
106.612
238.593
313.468
395.399
360.877
478.588
634.428
404.12
345.184
388.306
453.759
372.227
342.622
468.928
523.752
538.964
491.225
316.246
98.0112
49.0673
70.5725
267.399
364.546
232.95
389.256
610.19
331.787
330.404
397.763
449.166
329.509
265.192
401.479
492.426
509.154
416.943
183.361
39.4093
35.241
30.2656
179.425
291.997
155.632
309.207
585.725
342.111
317.904
447.828
436.253
287.346
211.587
304.335
424.512
422.027
358.115
52.8026
25.0967
22.8666
10.228
82.0497
249.168
176.161
265.296
529.792
306.377
263.72
453.529
405.487
232.679
163.31
203.878
322.079
329.505
316.746
30.9218
17.4843
15.4056
-3.06731
19.7815
226.55
196.759
246.071
429.724
179.202
181.932
397.052
296.17
94.2305
116.073
168.339
211.354
249.094
240.833
11.7256
16.2527
9.76878
-8.43418
25.1406
201.16
212.3
229.394
193.277
-36.7227
4.35028
270.527
129.253
48.0082
92.3721
139.775
149.284
170.782
123.669
22.1658
16.1138
7.02753
-11.6683
48.0119
201.113
218.454
198.449
1065.16
1029.05
997.488
951.972
891.921
836.673
792.537
762.743
739.627
685.089
644.472
579.747
466.415
315.326
223.821
203.563
160.629
98.1261
125.092
266.238
372.809
384.689
305.876
989.917
957.216
907.881
831.984
754.571
686.657
636.24
619.8
670.347
625.989
512.758
367.192
308.203
244.227
181.933
169.02
123.306
25.7561
42.147
149.183
234.452
208.648
181.322
942.212
899.886
806.373
694.803
600.38
514.593
440.798
403.209
469.827
271.453
230.048
213.517
-9.22842
31.5724
73.895
96.2427
81.4452
24.3147
38.9222
80.5479
74.4013
9.77074
6.63088
927.44
865.792
695.923
535.212
432.465
329.025
215.695
107.165
89.6642
121.738
121.789
111.399
-45.0359
0.163673
7.0888
23.3939
25.6345
8.4324
4.79099
1.10161
5.61457
6.07285
6.49067
921.263
900.53
619.714
394.104
278.757
124.424
94.1758
83.6233
85.2899
124.556
107.705
127.193
43.0973
-0.514638
0.963507
2.62167
3.99193
4.19154
3.36333
3.74369
4.6614
4.96896
4.28782
531.488
580.187
356.582
144.324
20.7639
31.6859
26.9496
33.1935
29.6172
29.8393
39.3772
63.3629
29.4819
0.36658
1.5656
2.30277
3.47166
3.761
3.56198
3.77721
4.04602
4.11658
1.26459
99.3703
99.8208
131.823
17.5962
14.3975
32.7999
23.1959
24.7842
27.2032
18.5402
-0.349957
3.51807
5.29842
5.17468
2.26786
2.44147
3.34456
4.60518
2.7002
0.325465
2.68156
0.906837
-1.35825
48.5146
42.2651
61.511
11.1134
9.33155
11.992
20.7988
24.2382
21.7381
3.11034
-2.33179
2.59169
3.37078
4.40558
6.5312
3.20192
3.09455
2.5641
1.21016
-1.09918
-1.15442
-0.885616
-1.29045
46.1096
45.8732
45.3745
9.47883
7.00166
7.88955
12.8238
14.7773
6.0352
-6.24021
-1.84698
1.15701
2.66617
2.03049
0.125552
-0.334141
-0.591183
-1.25565
-1.37965
-1.3324
-1.27808
-1.22922
-1.31922
43.0037
42.652
41.0763
1.62866
3.50405
3.22363
3.05016
1.46529
-1.21552
-4.88079
-1.45154
-1.02118
-0.0485845
-4.17852
-3.27957
-3.07936
-1.33764
-1.60591
-1.55079
-1.48816
-1.43381
-1.38643
-1.34245
40.0883
41.2366
27.3253
1.23736
0.724902
-1.28637
-1.42717
-1.76939
-1.66411
-1.23325
-1.35502
-4.0898
-3.19707
-2.43412
-2.54051
-2.3229
-2.09368
-1.69031
-1.70028
-1.64538
-1.58787
-1.54325
-1.50867
34.252
34.6984
5.65314
-0.420826
-0.932249
-1.37206
-1.96661
-2.02207
-1.94965
-0.549739
0.209951
-2.72959
-3.08266
-2.33224
-2.08934
-2.11446
-2.12942
-1.96884
-1.87817
-1.80429
-1.74484
-1.7011
-1.67167
24.2125
22.9312
-0.135885
-1.53608
-1.78154
-1.84089
-2.43198
-2.51597
-2.37568
-2.11509
-1.66947
-1.93369
-2.87244
-2.29919
-2.01549
-2.11192
-2.26875
-2.18062
-2.0469
-1.95592
-1.89396
-1.85059
-1.82213
0.377488
-19.4703
-3.36582
-3.21585
-3.06527
-2.92759
-3.0386
-3.15781
-2.84668
-2.73829
-2.56821
-3.27974
-4.21825
-3.02772
-2.65673
-2.44878
-2.43459
-2.31087
-2.17294
-2.08638
-2.0291
-1.98855
-1.96061
-23.6113
-35.8633
-5.35881
-5.33198
-5.02532
-4.38312
-5.38116
-5.42997
-3.74837
-2.69018
-3.57896
-6.57699
-4.97656
-3.63133
-3.08513
-2.57317
-2.4528
-2.34817
-2.25873
-2.1958
-2.14991
-2.11537
-2.08972
-9.13687
-18.4581
-6.88161
-6.92164
-7.40145
-8.80486
-13.3917
-15.6549
-12.0636
-13.3838
-14.7715
-8.55411
-3.91253
-3.41316
-3.1227
-2.75166
-2.43373
-2.38319
-2.33255
-2.29242
-2.25991
-2.23362
-2.21235
-7.55479
-11.5245
-8.37557
-8.73267
-11.4855
-18.1972
-28.868
-31.5912
-27.4573
-28.8105
-21.109
-3.93852
-3.75155
-3.09774
-2.74801
-2.57859
-2.46146
-2.42891
-2.404
-2.38262
-2.36367
-2.3468
-2.33151
-21.9342
-12.567
-11.2306
-13.1665
-20.5307
-31.896
-49.0297
-49.8444
-39.6772
-25.8449
-11.0921
-2.81715
-2.95957
-2.69362
-2.60379
-2.52006
-2.49075
-2.48218
-2.47681
-2.47168
-2.4657
-2.45857
-2.45012
-14.4612
-11.8078
-18.6119
-15.316
-21.8491
-33.5917
-52.7127
-53.5872
-38.1639
-15.1227
-6.66876
-2.387
-2.53895
-2.48715
-2.50831
-2.52077
-2.532
-2.54397
-2.55503
-2.56393
-2.56981
-2.57222
-2.57095
-10.3809
-9.14956
-14.1194
-13.8203
-17.6056
-26.8114
-40.5288
-41.4493
-26.3369
-8.11478
-1.06678
-2.04575
-2.26042
-2.3285
-2.44668
-2.53484
-2.58666
-2.61872
-2.64278
-2.66294
-2.67929
-2.69076
-2.69671
-9.46457
-11.7995
-11.5918
-11.3497
-12.6041
-15.9055
-22.7346
-23.5884
-15.2353
-5.701
-1.75382
-0.881797
-2.06886
-2.22454
-2.4382
-2.59299
-2.6769
-2.71744
-2.74515
-2.77179
-2.79687
-2.81691
-2.8299
-7.96157
-7.28288
-7.62727
-8.34836
-8.0476
-8.26013
-10.9876
-13.9491
-12.1702
-6.75084
-1.94153
-0.306159
-1.98166
-2.25837
-2.55215
-2.75854
-2.84817
-2.85935
-2.86712
-2.89199
-2.92455
-2.95313
-2.97282
-10.8092
-6.74364
-6.8025
-6.32852
-4.87152
-4.1595
-5.98252
-11.081
-15.576
-18.9121
-8.90894
-3.40587
-2.48852
-2.62979
-2.91723
-3.16943
-3.22633
-3.0946
-3.01152
-3.02166
-3.06377
-3.10202
-3.12778
-4.89931
-6.83513
-6.96768
-6.11244
-3.82668
-2.9412
-5.84483
-10.9716
-17.4496
-22.1971
-11.7686
-5.10741
-3.59491
-3.37318
-3.64761
-4.08136
-4.31136
-3.71674
-3.15486
-3.15798
-3.21865
-3.2678
-3.29747
-12.0097
-7.99042
-8.35884
-8.41893
-7.35523
-2.47958
-2.93613
-8.8363
-6.33781
-7.41042
-6.92537
-5.17521
-4.19216
-3.99286
-4.24096
-4.67701
-4.95233
-4.50224
-3.31835
-3.32022
-3.40486
-3.45813
-3.48473
-9.43157
-9.06204
-10.3864
-11.6815
-10.6847
-3.29759
-2.93685
-3.97707
-5.09095
-5.74871
-5.57037
-4.81828
-4.29492
-4.09402
-4.1438
-4.56172
-4.84881
-4.49424
-3.75528
-3.61047
-3.65458
-3.67958
-3.68941
-7.20852
-7.48973
-12.7532
-15.4051
-15.4215
-2.26852
-1.96629
-2.91302
-3.98872
-4.76732
-4.89819
-4.65279
-4.37871
-4.19764
-4.18227
-4.57542
-5.32886
-4.81527
-4.26828
-4.02824
-3.94769
-3.91954
-3.90334
-11.7487
-12.9288
-13.4374
-17.2586
-17.0441
-0.0320743
-1.53885
-2.49936
-3.67916
-4.48329
-4.75191
-4.68847
-4.62143
-4.51162
-4.55789
-4.83366
-5.52236
-5.12687
-4.66205
-4.34507
-4.21674
-4.1523
-4.11389
-15.2303
-16.3604
-16.319
-9.95208
-7.08817
3.62669
-0.875229
-2.28256
-3.63184
-4.53887
-4.83941
-4.90118
-4.87298
-4.84969
-4.89359
-5.02362
-5.16254
-5.00143
-4.7612
-4.56618
-4.44264
-4.36449
-4.31281
-19.1839
-19.0967
-17.4389
11.655
6.81747
-1.74346
-1.86276
-2.97046
-4.20368
-4.99347
-5.22723
-5.27863
-5.25552
-5.23071
-5.22846
-5.23972
-5.20513
-5.06779
-4.89809
-4.75001
-4.63782
-4.55643
-4.49795
-18.3075
-18.1961
-16.8248
-2.99995
-6.50674
-5.18747
-4.33252
-4.82052
-5.42331
-5.85268
-5.95495
-5.91178
-5.80787
-5.70285
-5.60181
-5.49652
-5.36741
-5.2122
-5.0572
-4.92291
-4.81539
-4.7325
-4.67006
-12.71
-12.4932
-8.25363
-7.04036
-6.79465
-6.65442
-6.60992
-6.68326
-6.8482
-7.001
-7.12031
-6.97943
-6.68313
-6.34759
-6.05605
-5.80807
-5.58848
-5.39387
-5.22723
-5.09029
-4.98113
-4.89578
-4.8303
4.83303
-5.45126
-6.10154
-7.19943
-7.33201
-7.91244
-8.27609
-8.33797
-8.27586
-8.44341
-9.15486
-9.07055
-8.15984
-7.32697
-6.63194
-6.16847
-5.83676
-5.58809
-5.39745
-5.25011
-5.13597
-5.0476
-4.97961
14.9082
-3.8913
-5.5158
-6.85736
-7.72595
-8.6609
-9.14504
-9.33751
-9.36744
-9.96727
-11.8992
-12.0698
-10.2129
-8.31914
-7.28685
-6.53281
-6.07809
-5.77238
-5.55585
-5.39723
-5.27839
-5.188
-5.11873
8.33667
-5.05319
-5.70525
-7.15537
-8.49133
-9.3184
-9.78117
-9.96485
-10.0875
-10.7433
-12.714
-13.3208
-11.7647
-9.49462
-7.7842
-6.81416
-6.26806