/*--------------------------------*- C++ -*----------------------------------*\
| =========                 |                                                 |
| \\      /  F ield         | OpenFOAM: The Open Source CFD Toolbox           |
|  \\    /   O peration     | Version:  v1912                                 |
|   \\  /    A nd           | Website:  www.openfoam.com                      |
|    \\/     M anipulation  |                                                 |
\*---------------------------------------------------------------------------*/
FoamFile
{
    version     2.0;
    format      ascii;
    class       volScalarField;
    location    "0.9";
    object      p_rgh;
}
// * * * * * * * * * * * * * * * * * * * * * * * * * * * * * * * * * * * * * //

dimensions      [1 -1 -2 0 0 0 0];


internalField   nonuniform List<scalar> 
9072
(
1525.48
1510.43
1483.93
1449.24
1410.18
1368.49
1325.38
1280.83
1234.03
1182.4
1123.34
1057.18
993.937
928.214
868.394
819.137
781.396
739.185
756.311
757.106
785.308
798.435
803.865
1529.1
1512.85
1484.62
1449.11
1410.3
1368.7
1325.42
1280.95
1234.35
1183.17
1122.91
1057.47
993.783
925.97
865.041
815.684
778.761
731.967
733.208
742.758
783.468
798.27
804.22
1532.81
1516.62
1486.35
1449.57
1410.39
1369.07
1326.05
1281.94
1235.91
1185.73
1128.96
1063.53
992.862
920.944
857.414
808.818
775.027
733.884
701.385
741.154
783.118
799.577
805.517
1536.66
1520.69
1486.83
1450.52
1411.05
1369.59
1326.69
1283.12
1238.12
1188.9
1131.75
1064.58
990.045
913.396
846.036
797.238
765.595
740.283
700.517
750.079
785.843
803.086
807.86
1540.51
1523.13
1484.49
1451.96
1412.57
1370.13
1327
1284.28
1240.87
1192.7
1134.3
1064.45
986.162
902.719
829.457
781.453
750.684
732.27
723.88
752.879
790.371
809.198
811.266
1544.98
1524.42
1482.1
1454.7
1415.03
1370.57
1326.76
1285.11
1244.02
1197.38
1136.63
1062.41
981.135
886.618
804.644
761.123
732.618
711.152
709.949
748.622
796.273
818.375
815.58
1551.78
1527.42
1483.23
1456.85
1418.18
1370.54
1325.49
1285.09
1247.38
1203.16
1137.82
1057.58
975.421
862.395
766.03
736.682
712.675
684.61
685.06
738.635
803.632
830.834
818.771
1562.75
1535.09
1490.84
1461.95
1421.37
1369.42
1322.48
1283.51
1250.71
1211.13
1137.9
833.809
666.135
615.308
712.281
709.87
693.18
649.872
644.649
720.861
815.171
850.525
814.876
784.206
768.442
650.165
522.898
559.271
533.425
475.332
586.064
619.784
599.024
557.248
536.63
500.826
282.082
298.283
393.716
430.019
440.688
530.888
773.638
774.35
543.292
467.292
518.945
496.106
453.17
570.274
614.42
586.808
545.088
540.95
427.946
215.153
215.904
346.753
435.992
403.019
501.897
780.756
742.721
390.291
369.598
514.457
470.43
421.421
558.507
607.058
569.378
550.046
545.439
335.943
74.9982
56.9016
258.843
447.803
381.184
359.986
800.196
713.679
333.246
363.83
576.869
506.673
437.416
547.636
610.187
633.849
661.392
495.218
219.799
49.2994
41.8702
133.373
436.234
299.738
299.239
813.628
730.003
342.86
503.14
675.823
435.311
448.309
516.644
530.9
677.028
647.487
458.158
38.8603
42.8475
27.7753
84.341
405.683
299.655
394.159
749.014
757.665
504.702
629.699
569.911
398.591
442.259
410.897
304.664
605.973
648.561
230.861
24.6522
40.0749
19.9752
9.87421
323.571
491.825
363.537
761.277
620.167
432.797
548.105
526.918
337.22
157.693
178.183
240.824
580.145
581.709
363.206
31.8245
36.6718
19.6195
6.01658
386.334
435.602
423.269
631.384
401.216
300.694
515.082
454.932
62.817
290.568
160.153
390.901
550.513
410.834
374.61
248.256
36.9831
23.6636
181.127
565.719
598.923
468.243
1596.44
1553.31
1512.39
1470.21
1424.12
1365.42
1315.06
1277.99
1254.87
1218.16
803.562
694.146
883.014
797.909
603.799
524.788
420.846
322.153
369.837
656.618
838.543
885.259
797.849
1660.69
1604.48
1563.74
1489.85
1419.68
1346.51
1285.67
1249.74
1267.39
1021.22
985.2
936.752
509.148
548.003
700.006
272.335
239.809
370.7
494.296
690.824
835.203
738.531
743.024
1753.88
1680.74
1611.15
1501.76
1398.12
1309.52
1227.63
1167.39
1176.2
643.069
796.213
832.345
240.905
602.453
701.071
729.15
742.057
735.051
573.375
365.038
445.876
188.912
10.8649
1882.16
1787.33
1669.88
1309.96
1158.61
1244.65
1150.08
968.939
504.55
459.666
154.566
587.734
550.78
82.2689
8.83309
384.8
638.354
109.518
19.719
363.987
157.062
6.97183
7.3598
1902.12
1930.23
1502.86
1209.38
884.162
1165.42
385.561
113.422
103.45
137.062
219.979
679.019
429.333
6.1107
1.80799
3.07898
4.6524
5.45705
26.6164
4.80051
5.47559
6.20508
6.39533
1396.17
671.042
1592.65
1331.66
1027.84
63.4141
35.8931
268.5
250.213
176.972
258.583
201.204
178.441
130.017
3.22782
3.29349
4.20205
5.15511
5.04524
5.10193
5.48586
5.57455
60.8123
96.7888
126.948
1294.44
724.487
18.515
98.8537
62.9684
25.5032
28.6024
27.9316
9.64464
2.81146
6.45216
143.01
136.775
3.86511
4.23099
5.59327
9.57892
109.555
107.873
8.89264
31.4321
52.601
49.4225
921.465
167.499
12.2624
20.1607
30.2397
29.2189
72.5344
111.126
27.9611
2.55798
4.747
5.35506
52.8517
99.1332
4.61542
11.5376
113.924
40.9044
0.245076
0.462019
0.453605
46.5545
49.0157
323.726
511.737
9.81794
8.93124
36.3663
120.474
114.605
105.835
87.7201
1.3621
3.90089
23.9626
16.4131
60.8593
111.806
0.476651
0.0750623
0.238339
0.272552
0.978976
0.912053
43.444
45.1409
218.09
781.443
5.56857
5.62904
115.587
115.896
23.953
1.03325
23.3067
0.441339
11.9425
40.1988
34.5745
-0.574687
16.005
11.3895
0.145937
0.444969
0.258863
0.222774
0.254829
39.1915
42.8535
421.28
661.83
3.73784
7.98478
2.25021
9.21189
0.205889
4.90926
5.7305
-0.509425
15.5391
41.178
23.2783
1.80057
11.1118
2.60163
0.0390393
0.077876
0.138906
0.190397
0.22904
31.1731
37.1703
767.202
1.24677
1.51874
0.909655
0.994318
-0.0640361
-0.109772
14.1122
15.4962
1.97142
-1.09131
-0.500632
-0.152682
0.252802
-0.266082
-0.156933
-0.0410126
0.0403095
0.107128
0.158127
0.194886
16.6986
27.6797
794.998
0.53643
0.359224
0.661777
6.18782
-0.577931
-0.438225
-0.294286
10.5116
14.949
7.26347
-0.436703
1.36521
0.624186
-0.210672
-0.241934
-0.103049
0.00750078
0.0823881
0.134161
0.170021
-3.32315
151.923
835.493
-1.53113
-0.865351
0.00283352
3.87523
-1.00841
-0.871636
-0.630628
-0.593215
-0.335486
0.569211
-0.172071
-0.294891
6.94962
-0.160956
-0.0912655
-0.104812
0.00505812
0.0745407
0.122588
0.156578
-5.71778
208.286
847.637
-2.76153
-2.75527
0.376772
-2.00063
-2.56485
-2.46494
-0.494576
3.01345
126.483
112.986
-1.8715
-0.485384
7.09365
-0.275344
-0.142626
-0.0458471
0.0304125
0.0836835
0.123483
0.15333
-2.94406
-9.6283
896.506
-4.12433
-4.57405
-1.78201
-7.95983
-12.4158
-10.9914
-2.97856
33.9857
132.201
115.57
-1.18391
-0.637574
7.61196
-0.143571
-0.0321811
0.0237944
0.0687086
0.104768
0.134035
0.157637
81.8258
-10.0843
961.702
-5.51205
-3.24659
-10.8296
-18.8742
-26.3522
-25.7286
-23.0029
-10.5776
138.167
-1.44327
-0.559156
2.50785
0.104948
0.0209349
0.0614367
0.0893141
0.112308
0.132413
0.150285
0.166263
271.99
-13.5248
609.115
-2.26615
-5.08736
-21.1483
-36.9388
-47.0447
-42.1834
-27.7233
50.0338
81.1386
-0.477162
-0.161696
-0.0104219
0.0685586
0.133759
0.144818
0.151136
0.156163
0.161655
0.168195
0.175938
219.71
-9.83169
-11.4933
26.2162
-7.91488
-22.3003
-39.7095
-50.9975
-42.5873
-20.2782
-3.97759
110.425
0.171402
0.255325
0.260031
0.239495
0.229655
0.217655
0.205978
0.195856
0.188386
0.184203
0.183609
625.417
-7.07915
-7.07626
-6.84007
-12.4305
-16.1372
-28.6478
-37.2275
-29.8104
-10.3047
-0.289195
116.899
0.584112
0.596144
0.493044
0.384658
0.316624
0.276641
0.249519
0.227574
0.209208
0.195176
0.18642
680.851
-5.63043
182.547
-7.70922
-8.85449
-10.0738
-13.5177
-18.3193
-15.2539
-6.65177
0.544476
67.4004
7.74701
0.878089
0.671212
0.478656
0.363675
0.305697
0.274323
0.247599
0.221319
0.198359
0.181712
756.938
398.165
17.0641
-4.24305
-5.0642
-4.79954
-6.16373
-9.52188
-10.4979
-6.30683
4.92172
16.7997
24.2213
1.03108
0.717689
0.463292
0.314173
0.272818
0.270226
0.25354
0.223042
0.191452
0.167054
816.99
9.80917
-3.25919
-3.31914
-2.41985
-1.05698
-1.41151
-4.55867
3.14085
19.7689
6.13635
44.9401
13.9635
0.724509
0.485493
0.199327
0.025
0.0882
0.216708
0.24789
0.214279
0.172127
0.139888
769.736
-2.59125
-3.56429
-3.31335
-1.64268
-0.0292939
13.4392
57.4779
6.72409
3.20911
55.6068
58.1202
-0.782639
-0.0271444
-0.0916185
-0.475642
2.08581
5.62989
0.450498
0.241661
0.193056
0.135747
0.096727
7.69952
16.71
-4.73439
-4.95406
-4.49414
54.4738
119.649
22.0548
54.4767
16.1347
-0.627351
-2.58959
-1.06099
-0.510068
-0.571461
-0.915653
-1.31143
-1.03305
14.944
0.340055
0.144003
0.0711288
0.0328234
2.70286
233.379
-6.25982
-7.51909
-7.75584
146.94
16.4394
48.6228
2.69528
-1.85991
-2.15505
-1.56762
-0.884444
-0.523519
-0.388882
3.519
17.941
3.91945
11.8316
5.55659
-0.0032878
-0.037388
-0.0539177
7.83479
232.998
-3.22227
-10.2091
-12.3356
150.426
1.88949
8.92782
0.280226
-0.687175
-1.15229
-1.03617
-0.488822
4.50826
4.39976
2.08463
21.2447
21.8585
22.6805
-0.309783
-0.218653
-0.173666
-0.153517
-7.21257
-5.57244
101.287
-11.0762
-13.9605
80.81
10.8727
1.89934
0.77473
-0.247677
1.72165
1.79002
-0.780512
-0.680051
-0.627139
-0.780678
-1.23415
11.9877
-1.07365
-0.579242
-0.386055
-0.2974
-0.248529
-12.3204
-11.4761
-4.73992
63.2433
-1.80566
142.307
65.4081
2.53292
2.25202
2.00441
-0.724827
-0.88139
-0.884036
-0.847905
-0.854408
-0.938135
-1.10904
-1.10245
-0.876067
-0.645799
-0.489468
-0.391734
-0.328483
-2.64312
-15.1736
-14.0067
-1.59225
95.8804
166.726
9.23408
1.99195
2.86868
1.11294
-1.00612
-1.13606
-1.13786
-1.1079
-1.09405
-1.10125
-1.10204
-1.01335
-0.849682
-0.68692
-0.556739
-0.461009
-0.391925
0.753243
-14.5632
41.9832
114.119
124.765
17.8581
0.0227065
0.166089
0.943156
-0.274324
-1.66641
-1.68805
-1.60383
-1.49644
-1.3942
-1.29273
-1.17802
-1.03363
-0.875001
-0.728804
-0.607819
-0.513135
-0.440948
12.5306
73.1082
99.5635
21.1865
-0.332289
-1.73818
-1.28957
-2.1756
-2.11335
-1.79883
-2.69522
-2.70504
-2.45731
-2.12886
-1.81204
-1.54489
-1.31191
-1.1047
-0.92365
-0.771899
-0.649258
-0.552552
-0.477565
111.706
92.7222
-0.315043
0.251915
-1.90486
-2.4953
-3.41591
-3.76857
-3.51104
-2.9295
-4.29967
-4.21633
-2.56774
-3.21169
-2.44897
-1.8687
-1.48129
-1.19554
-0.978191
-0.81068
-0.681006
-0.580555
-0.502932
75.0653
93.6461
0.0454172
2.53324
1.40213
0.137066
-4.16628
-4.55338
-4.6468
-4.84265
-6.18443
-0.962606
0.464913
1.82381
-3.15439
-2.2183
-1.64826
-1.27789
-1.02177
-0.837053
-0.700069
-0.59658
-0.517496
89.424
61.6242
0.046847
-0.704853
-0.87792
-4.12101
-4.83119
-5.13639
-5.19299
-5.46617
-6.33596
-2.27882
-7.62363
-5.47448
-0.506201
-2.47937
-1.7506
-1.31861
-1.03667
-0.842068
-0.702455
-0.599284
-0.521268
26.4814
83.6034
9.61842
-1.57584
-3.39064
-5.15463
-6.0456
-5.84808
-5.52522
-5.23882
-5.73691
-6.8598
-4.88261
-5.55378
-1.30436
-2.50156
-1.73068
-1.29079
-1.00906
-0.818741
-0.685133
-0.58768
-0.51417
30.7849
32.5119
29.1938
25.3997
7.84468
-5.54264
-7.15063
-6.2771
-5.28872
-4.99348
-2.81658
-5.09103
-4.92719
-4.16908
-0.853652
-2.26498
-1.57848
-1.18897
-0.935395
-0.765733
-0.648131
-0.562133
-0.496466
30.3918
4.67565
3.21042
1.27223
15.1777
11.1747
-5.6308
-4.99492
-4.21048
-3.93622
-2.98266
-1.97596
-3.49816
-1.86318
1.00511
-1.82981
-1.32988
-1.02667
-0.824068
-0.688883
-0.59487
-0.524403
-0.468947
9.29916
3.19118
2.05233
0.250794
-1.3672
11.3992
10.8742
-2.50492
-2.64835
-2.70075
-2.68722
10.6218
-2.27945
1.20738
-1.3478
-1.35536
-1.03395
-0.827207
-0.690119
-0.597715
-0.530239
-0.476945
-0.433005
49.5259
1.89249
0.94573
-0.477397
-1.94975
-2.53268
1.44075
-1.29861
-1.64558
-1.80487
-1.79193
13.4808
13.2256
-1.1589
-1.15323
-0.896797
-0.720031
-0.614362
-0.548532
-0.499544
-0.458345
-0.422269
-0.390588
0.823421
7.26153
0.337613
0.199304
-1.23747
-1.90254
-1.5193
-1.23841
-1.31977
-1.5697
4.27237
14.7819
-0.506275
-0.702081
-0.59134
-0.467804
-0.42296
-0.41918
-0.414826
-0.401686
-0.383562
-0.363781
-0.344224
-0.397892
14.558
-0.00790685
1.12132
-0.50782
-1.27051
1.44749
0.16627
-0.986762
-2.69353
13.581
0.516584
-0.158136
-0.213283
-0.165119
-0.150822
-0.21754
-0.273166
-0.301798
-0.312128
-0.311969
-0.306117
-0.297345
806.746
911.07
1054.93
1011.36
659.016
581.925
756.459
776.67
127.347
62.1255
67.883
765.509
38.2814
91.4044
66.4062
47.6258
73.4927
59.5255
39.8697
59.8133
45.0646
0.305694
0.255016
-0.229043
0.0658271
0.13833
-0.0225837
-0.187712
0.235314
3.42339
2.86184
-0.288432
0.650035
3.89586
3.57916
3.16604
1.75986
1.66802
2.37535
1.25498
0.25451
0.319671
0.380559
0.462781
0.212991
0.214975
0.209202
0.197894
0.188579
0.193779
0.195476
0.194681
0.17632
0.183927
0.189567
0.193839
0.17266
0.181256
0.188667
0.195261
0.174587
0.182901
0.19063
0.197939
0.179275
0.186354
0.193385
0.200362
0.18409
0.189295
0.194884
0.200787
0.186427
0.189364
0.193055
0.197451
0.183738
0.184241
0.185889
0.188658
0.17367
0.171812
0.17152
0.172777
0.154069
0.150146
0.148233
0.148314
0.122842
0.117415
0.114476
0.113955
0.0777956
0.071942
0.0689158
0.068546
0.017047
0.0127012
0.0108932
0.0113791
-0.0584355
-0.0587447
-0.057905
-0.0561638
-0.141359
-0.135817
-0.131043
-0.127181
-0.221179
-0.209732
-0.200441
-0.193214
-0.290904
-0.274849
-0.261602
-0.250903
-0.348343
-0.329209
-0.313141
-0.29987
-0.39366
-0.372511
-0.354534
-0.33948
-0.427523
-0.404865
-0.385364
-0.368816
-0.450721
-0.42687
-0.406107
-0.388212
-0.464181
-0.439692
-0.418199
-0.399425
-0.468603
-0.444314
-0.422878
-0.404005
-0.464241
-0.44109
-0.420554
-0.402377
-0.451198
-0.430047
-0.411181
-0.394381
-0.429866
-0.411419
-0.394851
-0.379989
-0.401194
-0.38597
-0.37217
-0.359682
-0.366708
-0.355034
-0.344305
-0.334483
-0.328328
-0.320268
-0.312699
-0.305651
-0.288767
-0.284059
-0.279449
-0.275022
687.878
-66.333
-69.2556
194.006
554.955
62.719
68.4466
477.927
497.299
545.88
280.227
171.446
399.716
178.718
158.785
427.381
657.654
573.117
593.835
640.838
-45.0225
-71.3404
-75.7705
441.844
215.335
93.6754
740.339
687.703
594.328
64.7019
61.6662
218.356
498.775
456.535
639.905
707.957
422.221
322.185
709.185
662.284
187.377
-55.3583
-68.2372
120.478
688.669
575.605
670.845
50.3162
183.932
204.512
44.2842
150.054
29.5118
31.4012
139.364
136.923
200.488
751.846
534.896
245.211
338.024
486.22
604.616
619.247
710.615
434.479
21.1037
175.387
178.541
83.9357
32.0575
30.4361
35.65
19.4304
31.8611
19.8627
136.761
555.963
502.395
186.615
200.347
247.441
451.092
640.09
689.671
3.10747
2.83431
13.2283
9.55884
34.6037
43.2371
2.55571
3.22101
14.7311
58.2536
-0.158365
-0.228341
16.3117
461.744
518.343
421.786
196.101
2.97259
19.4373
2.52328
2.14408
34.0764
122.314
6.38168
51.6433
1.8292
2.88003
2.95839
3.5702
0.112469
-0.251516
-0.0110609
1.99263
6.6122
4.23023
5.12153
1.10996
0.771559
2.56062
1.69039
8.11655
72.7543
91.8605
17.7343
1.79875
2.86546
3.06865
3.25952
-0.458296
-0.341117
0.438308
0.779841
0.595199
1.10555
0.582926
0.447057
0.321699
0.708964
1.27507
9.05052
48.8547
61.6538
1.43902
2.09231
2.40462
2.15483
2.97589
-0.456272
0.0143824
0.776941
0.115454
0.211772
0.305921
0.404547
0.356184
0.0428096
0.004183
3.567
5.83152
-0.206255
-1.136
-0.0369513
0.289075
0.961212
5.3297
2.50097
1.04853
0.812029
0.0673598
0.159886
0.237658
0.300153
0.336081
0.124977
0.095848
1.58939
5.03682
-1.56382
-1.63391
-1.87497
-1.34908
-0.503757
6.02903
7.41753
17.0782
0.142838
0.125991
0.1377
0.182478
0.235527
0.281259
0.283863
6.57304
5.13411
4.25287
-2.17158
-1.83493
-1.99898
-2.16761
-1.78412
-0.986267
5.6715
7.55573
13.4977
0.179562
0.162538
0.174707
0.20615
0.239539
0.262787
0.225301
0.0591121
-0.804965
-1.26426
-1.35869
-1.20143
-1.6229
-1.98728
-1.6458
0.114025
-0.728852
2.99307
-1.21764
0.192027
0.190973
0.203801
0.22765
0.253991
0.272281
0.256866
0.424352
-0.116303
-0.319166
-0.509354
-0.738671
-1.11599
-1.328
-1.02305
1.23655
-0.607608
-0.450741
-0.074661
0.198492
0.207506
0.223421
0.246454
0.273373
0.299626
0.323874
1.27451
0.545981
0.174933
-0.051027
-0.0200215
-0.160398
-0.604575
0.440472
1.5822
-0.481024
-0.19566
0.150602
0.203377
0.218056
0.237043
0.261503
0.290752
0.323574
0.359854
0.467288
2.31831
0.461664
0.111349
-0.162253
0.19059
1.03751
6.54007
5.90753
-0.642142
-0.155371
0.338847
0.207331
0.224774
0.245909
0.271957
0.302965
0.338223
0.375809
0.410185
0.43199
2.59518
3.19797
2.89574
-0.0950315
1.95953
6.47239
-0.554814
-0.588467
-0.237964
4.03711
0.209654
0.227911
0.250169
0.27732
0.309254
0.34453
0.379117
0.403639
0.39987
0.324927
0.284591
-0.0293067
-0.269895
0.218529
-0.466254
-0.135274
-0.337123
-0.144543
3.9112
0.209113
0.226935
0.249524
0.277323
0.30986
0.344869
0.376487
0.392997
0.376854
0.311617
0.198822
0.0857315
0.0553318
-0.0760633
-0.197195
0.2609
-0.227736
3.29158
4.0047
0.204341
0.221008
0.243419
0.271602
0.304977
0.340937
0.372335
0.385571
0.363839
0.303125
0.223644
0.262905
0.17398
0.146344
4.70559
-0.373237
-0.268452
1.60245
-0.130447
0.193956
0.209183
0.231148
0.259551
0.294261
0.333234
0.368439
0.383293
0.35575
0.286966
0.22248
0.17736
0.145561
5.5759
0.823881
-0.628815
-0.0384087
4.77417
-0.098927
0.176619
0.190591
0.212106
0.240387
0.276559
0.320313
0.362949
0.385085
0.349284
0.251353
0.182199
0.166693
1.58819
0.142678
-0.632848
0.151778
-0.0214962
3.81169
-0.219079
0.151136
0.164621
0.186139
0.21319
0.249311
0.389252
0.417954
0.392287
0.463393
0.142501
0.0972858
0.115136
7.4874
0.344446
0.91999
-0.384457
3.23531
-0.411753
-0.341225
0.116521
0.130926
0.154026
0.177092
0.333296
0.413554
0.680363
5.03193
4.932
1.78661
-0.0578114
0.0103457
0.303785
1.33097
1.44975
2.69672
2.24709
-0.617495
3.10681
0.0718401
0.0887268
0.117795
0.132383
0.263396
0.294054
4.93138
3.80477
4.88066
4.74025
-0.133004
-0.0633388
-0.0373872
3.74666
0.806652
2.9238
0.290728
2.498
3.32346
0.0157473
0.0339139
0.0817444
0.0854948
0.0681863
4.34962
1.44757
-0.0646553
-0.10335
4.82733
3.97357
-0.0742239
-0.0458459
0.388776
3.83428
0.701889
0.232771
3.21696
-0.21354
-0.0526361
-0.0487381
2.0309
5.71244
0.0255949
4.29687
-0.219267
0.0243478
-0.0521509
-0.211733
4.70777
2.43458
-0.0340258
-0.0683506
-0.218586
0.573977
1.19084
-0.33793
-0.00524439
-0.124195
-0.131807
0.231535
5.76981
0.553655
-0.296401
-0.363871
-0.199254
-0.00140405
-0.213015
-0.207667
4.23247
2.44199
0.250213
-0.223354
-0.313306
-0.327495
-0.219882
-0.0440746
-0.186683
-0.186834
-0.213779
0.357693
5.79219
-0.270465
-0.383037
-0.311598
-0.234187
-0.214851
-0.212141
-0.211038
3.04028
3.88258
1.41735
-0.299149
-0.301481
-0.243086
-0.137954
-0.239797
-0.229618
-0.221962
0.198445
2.53564
4.37315
1.17232
2.74831
-0.0596532
-0.185
-0.220463
-0.226089
-0.242752
-0.278511
3.21647
3.37442
2.80747
0.971945
2.96263
-0.285465
-0.270459
1.00192
0.964012
0.13455
1.9893
4.7038
-0.176962
-0.0636036
-0.227068
-0.228195
-0.233722
-0.24766
-0.275752
-0.318912
-0.13806
3.07345
1.52661
3.48331
-0.323305
-0.30668
0.936836
-0.317864
-0.316644
-0.284884
-0.272817
-0.238047
-0.241687
-0.235392
-0.233205
-0.235678
-0.243607
-0.257076
-0.273845
-0.290203
-0.290042
0.0444069
-0.236515
-0.350396
-0.329136
-0.326079
-0.254031
-0.226818
-0.318352
-0.290048
-0.263328
-0.24896
-0.240011
-0.235331
-0.23457
-0.237259
-0.242098
-0.246315
-0.246431
-0.24267
-0.213147
-0.207947
-0.367746
-0.34275
-0.338357
-0.243485
-0.395671
-0.395891
-0.337569
-0.277915
-0.253495
-0.241732
-0.235326
-0.232261
-0.23145
-0.231615
-0.231093
-0.228496
-0.224121
-0.216153
-0.204085
-0.377882
-0.350912
-0.343092
-0.294997
-0.432073
-0.447901
-0.233984
-0.271847
-0.253706
-0.241258
-0.234309
-0.229946
-0.227098
-0.224853
-0.22229
-0.218834
-0.214768
-0.210005
-0.203256
-0.382289
-0.354391
-0.340314
-0.348781
-0.380506
-0.394246
0.241975
0.317521
-0.250979
-0.240518
-0.233544
-0.228333
-0.224217
-0.220645
-0.217132
-0.213426
-0.209692
-0.206311
-0.201615
-0.381312
-0.353392
-0.336176
-0.329483
-0.331051
-0.327584
0.271165
0.334805
-0.252432
-0.241455
-0.233645
-0.227519
-0.222453
-0.218036
-0.21397
-0.210107
-0.206518
-0.203514
-0.199571
-0.374717
-0.347941
-0.329538
-0.318015
-0.310429
-0.285456
-0.298731
-0.274086
-0.254748
-0.24264
-0.233929
-0.227041
-0.221283
-0.216282
-0.211812
-0.207756
-0.204136
-0.2011
-0.197436
-0.362401
-0.337912
-0.320035
-0.307298
-0.297127
-0.287739
-0.282415
-0.267115
-0.253267
-0.242271
-0.233585
-0.226415
-0.220273
-0.214879
-0.210078
-0.205791
-0.202035
-0.19888
-0.195523
-0.34474
-0.32352
-0.30745
-0.295557
-0.285877
-0.277122
-0.269878
-0.259872
-0.249601
-0.240397
-0.232404
-0.225392
-0.219131
-0.213486
-0.208397
-0.20385
-0.1999
-0.19665
-0.193712
-0.322589
-0.305382
-0.292091
-0.281952
-0.27389
-0.266796
-0.26023
-0.252881
-0.245225
-0.237786
-0.230759
-0.224143
-0.217909
-0.212069
-0.206682
-0.201822
-0.197599
-0.194226
-0.191697
-0.296984
-0.284208
-0.274272
-0.266701
-0.260994
-0.256001
-0.251201
-0.246087
-0.240599
-0.234819
-0.228826
-0.222694
-0.216529
-0.210483
-0.204736
-0.19947
-0.194861
-0.191221
-0.188985
-0.269448
-0.261104
-0.254773
-0.250301
-0.24732
-0.244907
-0.242349
-0.239487
-0.23604
-0.231841
-0.226852
-0.221169
-0.215005
-0.208647
-0.202411
-0.196598
-0.191464
-0.187274
-0.184745
1519.76
1498.13
1467.51
1430.05
1389.61
1347.07
1303.32
1257.82
1209.01
1153.83
1090.53
1025.39
961.045
897.284
842.05
799.711
758.031
748.727
747.919
774.21
792.859
802.206
804.397
1522.28
1499.88
1467.54
1430
1389.83
1347.19
1303.37
1258.05
1209.52
1153.77
1090.51
1025.35
959.596
894.315
838.756
796.389
753.766
736.273
718.176
770.127
792.133
802.281
804.753
1525.94
1502.89
1468.48
1430.16
1390.03
1347.7
1304.14
1259.27
1211.48
1158.41
1097.16
1028.73
956.455
887.625
830.994
790.315
751.724
721.936
700.546
769.097
792.831
803.752
805.374
1530.1
1505.12
1468.98
1431.05
1390.57
1348.25
1304.98
1260.94
1214.25
1161.57
1099.28
1028.15
951.457
877.694
819.245
779.47
756.17
711.168
724.146
772.145
796.073
806.99
805.688
1533.9
1504.18
1468.3
1433
1391.53
1348.55
1305.59
1262.86
1217.72
1165.09
1100.5
1026.71
944.69
863.241
802.576
764.56
739.873
726.526
733.319
774.863
801.875
812.27
804.269
1537.34
1502.14
1468.59
1436.31
1392.86
1348.44
1305.67
1264.76
1221.92
1169.27
1100.37
1023.08
934.965
840.947
779.009
746.397
720.351
706.665
725.031
776.352
810.425
819.943
798.796
1542.03
1503.12
1470.84
1440.1
1394.24
1347.5
1304.7
1266.27
1226.9
1174.18
1097.54
1017.63
922.056
804.699
746.163
726.54
697.487
678.364
706.662
775.703
821.718
830.047
784.483
1550.14
1510.58
1479.75
1444.2
1395.04
1345.07
1301.96
1266.79
1232.83
1182.69
1026.59
718.143
622.444
693.177
706.379
707.621
671.394
635.589
674.883
772.93
838.165
851.063
753.994
757.165
730.272
564.117
535.957
557.527
495.799
528.68
609.4
610.854
594.645
536.379
537.653
392.817
249.562
357.553
396.234
446.956
460.855
558.767
748.14
676.124
471.425
495.027
516.032
470.8
501.548
597.113
611.373
559.007
534.416
525.406
309.202
175.106
299.945
379.562
453.334
414.706
547.473
766.04
531.731
354.107
421.124
515.49
425.347
474.768
601.06
563.032
566.132
608.59
443.985
193.424
56.5835
152.671
354.186
478.538
325.097
513.243
800.21
455.692
341.805
423.613
576.173
472.613
456.073
592.333
596.885
681.602
601.531
367.923
66.1551
45.9479
40.9724
326.317
457.592
225.292
483.375
830.669
386.638
405.912
519.94
580.768
402.669
461.194
505.733
662.719
663.421
599.509
181.636
39.0758
36.8664
24.2186
274.677
380.071
267.256
477.438
833.616
605.995
519.353
612.817
579.309
379.365
448.898
335.162
487.069
627.573
594.868
49.7189
34.7499
32.7826
14.2108
235.705
505.907
345.471
516.29
728.136
496.76
448.138
487.161
459.09
261.059
156.249
208.512
556.978
603.629
464.255
232.573
36.807
30.3249
12.1328
46.3982
535.158
381.271
551.079
600.557
296.488
399.288
530.328
331.345
131.525
314.064
186.878
475.443
579.801
241.194
336.792
40.0117
30.9308
55.0041
425.72
588.588
551.789
482.581
1567.33
1531.22
1497.03
1443.89
1394.09
1338.84
1294.71
1264.91
1241.79
1117.58
719.939
717.673
875.33
695.742
552.187
483.315
361.668
305.714
526.797
752.932
874.264
860.725
744.878
1617.28
1584.58
1530.76
1458.59
1381.93
1314.02
1263.6
1247.16
1289.11
801.9
1005.83
730.016
484.284
746.521
425.521
246.579
310.502
398.317
601.636
771.353
843.228
694.652
731.506
1694.77
1652.44
1558.93
1447.36
1352.94
1267.15
1193.36
1155.76
1154.32
513.309
823.48
422.87
540.736
664.173
716.812
742.947
771.025
664.907
425.32
391.903
437.567
36.3912
64.4189
1805.19
1743.54
1553.27
1200.73
1221.07
1205.66
1091.46
658.385
633.722
155.54
222.304
720.437
178.554
8.40864
33.9148
598.407
473.058
17.1799
191.928
369.39
6.78791
7.2497
12.4102
1924.21
1771.29
1477.8
940.32
1115.13
1060.03
118.884
107.471
109.707
160.546
603.846
663.349
138.181
0.92391
2.18453
3.8687
5.19939
9.04373
23.2443
5.02655
5.97871
6.3177
30.8949
1230.61
972.951
1451.02
1238.23
347.091
41.3064
130.655
268.969
98.4623
260.814
207.231
143.109
153.253
36.8726
2.92406
3.66057
4.82946
5.11886
4.93111
5.8588
5.55754
7.85904
78.8825
114.979
557.992
1344.35
30.2074
67.0318
106.159
25.2043
26.7927
29.4412
21.6569
1.77037
5.00956
95.4164
140.648
67.2352
3.94995
4.85304
6.11372
57.8357
107.916
48.6806
40.6928
0.0414025
51.9024
159.471
1203.42
13.0461
12.1891
30.6531
28.7674
38.8886
103.966
98.8285
-0.583773
4.22108
5.00018
6.12128
140.782
4.86761
4.79388
92.4503
110.932
0.315398
0.261146
0.720593
0.24933
47.9981
49.6822
1000.04
11.5561
9.07892
12.9861
92.9449
119.136
110.465
97.7455
-0.0644545
2.93495
4.83153
36.4154
5.19599
109.15
90.9615
0.2535
0.144602
0.269369
0.786245
0.985216
0.764601
44.8278
44.8832
910.071
118.634
5.7578
56.5165
115.913
105.428
0.800562
27.8141
0.487094
0.966986
41.3761
37.2489
20.1554
-0.313686
52.8285
0.0237081
0.410126
0.471379
0.195109
0.242491
0.782777
42.0087
43.6322
911.174
3.50812
6.78386
2.14635
22.2606
0.0471522
2.89524
2.51639
5.28343
-1.7027
36.9418
41.0016
10.0042
0.970227
9.64748
0.0641064
0.0538555
0.108735
0.166243
0.21087
0.245444
36.2716
107.198
762.154
1.53386
1.17648
0.684951
0.82631
-0.137751
6.0781
15.0481
3.47818
0.0281659
-1.0168
-0.266268
0.00846256
0.635864
-0.249144
-0.0895126
0.00300892
0.0759222
0.134626
0.178212
0.207639
26.3963
346.986
133.233
0.539699
0.296527
5.70878
5.47946
-0.506833
-0.36654
0.0374277
14.7961
14.09
-0.608135
-0.116523
6.1785
-0.106726
-0.263733
-0.176026
-0.0423742
0.0485782
0.110539
0.153915
0.182375
2.89598
835.768
609.161
1.00652
-0.854581
5.11155
-0.866518
-1.01364
-0.71138
-0.601643
-0.407007
-0.00848618
0.887365
-0.741261
5.51868
-0.316256
-0.11225
-0.181165
-0.0431651
0.0433158
0.100594
0.141145
0.169082
-19.5944
869.651
374.142
-2.46304
-2.6732
2.77728
-2.62524
-2.60222
-1.45079
0.127359
35.0219
127.451
3.79501
-1.22045
6.61281
3.06312
-0.0286366
-0.0932664
-0.00383428
0.0590927
0.10498
0.139521
0.16517
-6.70846
18.2238
87.3299
-4.44965
-4.43642
-5.78779
-10.4877
-12.8923
-4.32379
-6.45581
126.723
132.94
33.1366
-0.874963
1.53085
0.2896
-0.0536394
-0.00307555
0.0475391
0.0876673
0.120176
0.146472
0.167739
-5.01886
-8.21909
148.228
-5.46982
-6.69398
-14.6578
-23.8922
-26.6497
-23.4745
-24.3656
65.3911
4.93315
-1.22154
-0.028971
3.07344
-0.0733085
0.0438258
0.0763771
0.101282
0.122662
0.141608
0.158481
0.173772
-12.6888
-9.45987
597.789
-2.52926
-11.5067
-27.9283
-44.4633
-46.0048
-35.4294
-19.5751
86.9615
0.345771
-0.324599
-0.0376903
0.0266894
0.111477
0.13999
0.148293
0.153665
0.158798
0.16478
0.171909
0.180362
-11.2695
-8.70695
19.5103
-6.61038
-18.4112
-28.5701
-48.6816
-49.5544
-32.7319
-11.4858
66.4653
28.8497
0.216724
0.268526
0.247363
0.234906
0.223673
0.211702
0.200643
0.19174
0.185858
0.183456
0.184719
-7.1695
-5.93619
-5.42886
-6.54298
-14.6189
-21.1022
-34.7821
-35.7057
-20.6082
-4.6111
9.28054
76.7623
0.620449
0.552371
0.434192
0.346031
0.294205
0.262144
0.23809
0.217924
0.201576
0.190113
0.184158
-6.11365
140.268
38.7967
-8.20939
-9.57823
-9.99607
-16.7382
-17.5986
-11.9324
-2.3435
1.6764
103.634
0.937207
0.78152
0.567861
0.413073
0.329167
0.288624
0.260917
0.234278
0.209193
0.189151
0.176161
686.222
128.328
5.35554
-5.19277
-4.9132
-5.11658
-7.79465
-10.7207
-8.81867
0.665859
1.86928
107.71
1.14959
0.872884
0.5791
0.372711
0.283078
0.271898
0.264128
0.239255
0.206701
0.178122
0.158432
712.36
-2.41048
-3.45185
-3.03742
-1.61367
-0.901095
-2.71521
-0.58173
21.3944
17.2753
0.0439833
72.8625
0.76792
0.626657
0.339216
0.0870208
0.0303691
0.162645
0.244923
0.234788
0.192675
0.154427
0.128666
237.099
-3.39142
-3.5797
-2.72933
-0.443617
0.441854
60.6828
25.1777
4.05818
52.2244
63.6094
-1.6437
-0.213263
0.00846115
-0.265641
0.122367
4.41084
4.68266
0.22743
0.223656
0.162989
0.113835
0.084171
378.652
-4.47723
-4.8486
-4.90848
5.84035
145.911
12.5178
54.3446
56.9797
1.01952
-3.32394
-1.66719
-0.685295
-0.485986
-0.718003
-1.1387
-1.36187
5.84579
12.8229
0.186618
0.101977
0.0487046
0.0221063
386.699
-5.21393
-6.75086
-8.04092
63.8901
146.01
13.9536
54.5415
-1.45725
-2.1143
-1.93719
-1.18616
-0.662855
-0.461473
0.663182
9.22553
16.4718
-0.272747
19.952
0.0215601
-0.0225538
-0.047554
-0.0573792
2.87649
180.187
-8.95001
-11.5955
18.1873
65.6591
6.37701
1.21568
-0.229845
-1.0085
-1.1397
-0.890775
2.5999
4.5716
4.48263
6.19537
21.7459
22.2595
6.93019
-0.271015
-0.190465
-0.162313
-0.146119
-4.37571
78.263
61.2523
-13.1933
-12.6783
161.577
2.35849
1.386
0.205033
0.646602
1.7347
0.0359813
-0.739011
-0.6292
-0.675471
-0.951244
1.85819
1.66296
-0.779627
-0.46265
-0.334324
-0.269883
-0.231472
-10.9258
-11.735
64.3558
39.696
-2.38633
171.069
3.15456
1.74454
2.57266
0.995276
-0.831641
-0.893562
-0.865367
-0.842075
-0.885974
-1.01601
-1.15492
-0.993812
-0.753586
-0.558568
-0.43502
-0.356874
-0.305191
-14.7227
-14.6989
-12.3028
29.6177
171.334
94.6449
2.44113
3.45871
2.25962
-0.860612
-1.09442
-1.14582
-1.12271
-1.0979
-1.09565
-1.10691
-1.07232
-0.934978
-0.76528
-0.6172
-0.505013
-0.423624
-0.365142
-13.6975
-13.6379
98.4668
125.296
70.8519
-0.23696
0.24948
-0.261312
1.20548
-1.59467
-1.69695
-1.65377
-1.54987
-1.44484
-1.3438
-1.23851
-1.1094
-0.954191
-0.799192
-0.664901
-0.557386
-0.474489
-0.412055
-1.54742
90.4727
60.0023
1.21636
-1.12399
-1.77795
-1.66172
-2.22407
-0.497195
-2.6178
-2.73711
-2.59536
-2.29988
-1.96439
-1.67285
-1.42487
-1.20527
-1.01067
-0.844033
-0.707091
-0.597927
-0.512583
-0.447094
100.114
78.1058
-0.120768
-0.899458
-2.08692
-2.85824
-3.7048
-3.76668
-2.38552
-3.93499
-4.64291
-2.83399
-3.5647
-2.81817
-2.12355
-1.66008
-1.32836
-1.07969
-0.889056
-0.741711
-0.627576
-0.539208
-0.471209
109.312
1.32704
0.416925
1.89533
0.872209
-1.98863
-4.42495
-4.60298
-4.68647
-5.32007