/*--------------------------------*- C++ -*----------------------------------*\
| =========                 |                                                 |
| \\      /  F ield         | OpenFOAM: The Open Source CFD Toolbox           |
|  \\    /   O peration     | Version:  v1912                                 |
|   \\  /    A nd           | Website:  www.openfoam.com                      |
|    \\/     M anipulation  |                                                 |
\*---------------------------------------------------------------------------*/
FoamFile
{
    version     2.0;
    format      ascii;
    class       surfaceScalarField;
    location    "0.9";
    object      phi;
}
// * * * * * * * * * * * * * * * * * * * * * * * * * * * * * * * * * * * * * //

dimensions      [0 3 -1 0 0 0 0];
oriented        oriented;


internalField   nonuniform List<scalar> 
17936
(
1.82052e-07
1.19224e-06
-1.3743e-06
3.95666e-08
-3.62265e-07
3.22699e-07
1.27672e-06
-2.74998e-06
1.47326e-06
4.07561e-06
-4.87055e-06
7.9494e-07
5.28208e-06
-5.52283e-06
2.40749e-07
5.75373e-06
-6.07936e-06
3.25628e-07
6.51307e-06
-6.98602e-06
4.72949e-07
7.42761e-06
-7.80468e-06
3.77066e-07
8.09341e-06
-8.18216e-06
8.87544e-08
7.88732e-06
-7.13632e-06
-7.50999e-07
6.09218e-06
-4.93383e-06
-1.15835e-06
3.94091e-06
-3.56784e-06
-3.73074e-07
4.107e-06
-5.20631e-06
1.09932e-06
5.58313e-06
-4.63888e-06
-9.44251e-07
3.02753e-06
-1.4919e-06
-1.53563e-06
1.61938e-07
1.24678e-06
-1.40872e-06
-3.16172e-06
6.01315e-06
-2.85143e-06
-8.03638e-06
6.11259e-06
1.92379e-06
-6.72195e-07
-7.15581e-06
7.82801e-06
1.24875e-05
-1.14603e-05
-1.02717e-06
8.06749e-06
-5.64442e-06
-2.42307e-06
3.86409e-06
-2.41617e-06
-1.44791e-06
1.02249e-06
1.89577e-07
-1.21207e-06
-3.2861e-06
5.5218e-06
-2.2357e-06
3.85456e-06
-5.30757e-06
-1.61943e-06
3.07244e-06
6.28443e-06
-6.55898e-06
-2.23495e-06
2.50949e-06
6.48395e-06
-6.64592e-06
-1.15942e-06
1.32138e-06
7.26105e-06
-8.14748e-06
-1.29549e-06
2.18192e-06
9.01309e-06
-9.66513e-06
-1.16066e-06
1.8127e-06
1.00477e-05
-1.01934e-05
-7.89643e-07
9.35329e-07
1.01506e-05
-9.95196e-06
-2.81936e-07
8.3342e-08
9.64777e-06
-9.33087e-06
4.3149e-07
-7.48386e-07
9.09786e-06
-8.98667e-06
1.0535e-06
-1.16469e-06
8.90269e-06
-8.69895e-06
5.58549e-07
-7.62292e-07
8.11629e-06
-6.90547e-06
6.92408e-07
-1.90323e-06
5.0697e-06
-2.85056e-06
1.10823e-06
-3.32737e-06
8.64989e-07
4.79113e-07
2.8517e-06
-4.1958e-06
-1.22041e-06
1.39083e-06
2.14837e-06
-2.3188e-06
-8.61259e-07
-4.64542e-07
1.37916e-06
-5.33594e-08
2.20002e-06
-3.40412e-06
3.93586e-06
-2.73176e-06
3.96892e-06
-5.31942e-06
-2.59266e-06
3.94317e-06
8.61351e-06
-1.06513e-05
-1.44911e-05
1.65289e-05
8.97567e-06
-6.0164e-06
4.02243e-06
-6.98169e-06
4.24878e-06
-3.17793e-06
4.31504e-06
-5.38588e-06
2.45544e-06
-1.83589e-06
2.34809e-06
-2.96765e-06
1.21917e-06
-6.82143e-07
2.12876e-06
-2.66579e-06
-7.68583e-06
9.76784e-06
-2.08201e-06
3.98573e-06
-5.87288e-06
-4.61637e-06
6.50352e-06
7.51633e-06
-8.2572e-06
-2.98637e-06
3.72724e-06
8.03376e-06
-7.52833e-06
-1.15311e-06
6.47686e-07
7.34271e-06
-7.52125e-06
-2.64225e-06
2.82079e-06
7.88475e-06
-8.33439e-06
-2.31357e-06
2.76322e-06
8.80948e-06
-9.22433e-06
-1.22318e-06
1.63804e-06
9.49553e-06
-9.56808e-06
-5.32427e-08
1.25791e-07
9.41868e-06
-9.04349e-06
1.08007e-06
-1.45526e-06
8.4339e-06
-7.55679e-06
1.67131e-06
-2.54841e-06
6.35249e-06
-4.82578e-06
1.87494e-06
-3.40164e-06
3.12999e-06
-1.462e-06
3.48201e-06
-5.15e-06
-3.54872e-08
1.29961e-06
4.99262e-06
-6.25675e-06
-2.1935e-06
2.68633e-06
4.92511e-06
-5.41793e-06
-2.88396e-06
2.89483e-06
2.41159e-06
-2.42246e-06
-2.82673e-06
2.58717e-06
-1.04297e-06
1.28253e-06
-1.50262e-06
-1.34412e-06
-4.23792e-07
3.27053e-06
5.2115e-06
-7.62355e-06
-5.71586e-06
8.12791e-06
6.6214e-06
-3.00815e-06
-1.48708e-05
1.12575e-05
3.15002e-07
-7.71808e-07
8.62552e-06
-8.16871e-06
1.67337e-06
-2.16299e-06
5.60481e-06
-5.11518e-06
2.25147e-06
-1.98414e-06
3.39152e-06
-3.65885e-06
1.46489e-06
-7.64703e-07
3.22721e-06
-3.92739e-06
-1.18163e-05
1.38647e-05
-2.04838e-06
4.2461e-06
-6.98272e-06
-8.85474e-06
1.15914e-05
9.25586e-06
-1.00363e-05
-4.55765e-06
5.33807e-06
9.52918e-06
-8.73925e-06
7.94085e-08
-8.69338e-07
8.309e-06
-8.32736e-06
-2.87616e-06
2.89452e-06
8.63259e-06
-9.05976e-06
-3.19692e-06
3.62409e-06
9.50448e-06
-9.87402e-06
-2.05971e-06
2.42925e-06
1.00965e-05
-1.01369e-05
-2.03689e-07
2.44077e-07
9.97373e-06
-9.57457e-06
1.84e-06
-2.23915e-06
8.89461e-06
-7.89172e-06
3.54457e-06
-4.54746e-06
6.55577e-06
-4.95871e-06
5.02319e-06
-6.62025e-06
3.25339e-06
-1.58858e-06
6.77426e-06
-8.43907e-06
5.05246e-08
1.30547e-06
7.48063e-06
-8.83662e-06
-2.39734e-06
3.13375e-06
6.00575e-06
-6.74216e-06
-3.48877e-06
3.4915e-06
2.42288e-06
-2.42562e-06
-3.26267e-06
3.01772e-06
-1.37529e-06
1.62025e-06
-2.94323e-06
2.70519e-06
-4.59728e-06
4.83532e-06
-1.9901e-06
1.74858e-06
-9.90786e-06
1.01494e-05
-3.28747e-06
4.93051e-06
-8.06187e-06
6.41883e-06
-3.86489e-06
1.27763e-06
6.58957e-06
-4.00232e-06
8.7123e-07
-2.08281e-06
4.14636e-06
-2.93478e-06
2.52658e-06
-2.39367e-06
3.82851e-06
-3.96142e-06
1.84056e-06
-8.7999e-07
4.76225e-06
-5.72283e-06
-1.59069e-05
1.79063e-05
-1.99938e-06
4.51609e-06
-7.43471e-06
-1.45217e-05
1.74403e-05
9.53396e-06
-1.00841e-05
-6.00483e-06
6.555e-06
9.6314e-06
-9.10328e-06
1.57785e-06
-2.10597e-06
8.93001e-06
-9.07541e-06
-2.94043e-06
3.08583e-06
9.44014e-06
-9.8755e-06
-4.05048e-06
4.48584e-06
1.02675e-05
-1.05587e-05
-2.74772e-06
3.03892e-06
1.07158e-05
-1.07142e-05
-2.53262e-07
2.51713e-07
1.05251e-05
-1.01073e-05
2.65369e-06
-3.07149e-06
9.41203e-06
-8.39613e-06
5.5559e-06
-6.5718e-06
7.04305e-06
-5.40005e-06
8.22175e-06
-9.86474e-06
3.57842e-06
-1.69033e-06
1.01877e-05
-1.20758e-05
-1.65992e-07
1.89854e-06
1.03569e-05
-1.20894e-05
-3.35875e-06
4.36432e-06
7.61148e-06
-8.61705e-06
-4.78081e-06
4.64367e-06
2.39419e-06
-2.25706e-06
-4.18656e-06
3.73967e-06
-1.95589e-06
2.40279e-06
-3.49687e-06
3.51442e-06
-4.80998e-06
4.79243e-06
-3.95751e-06
5.07555e-06
-9.18403e-06
8.06599e-06
-6.19539e-06
5.74616e-06
-6.17532e-06
6.62455e-06
-3.57055e-06
9.09233e-07
1.10329e-06
1.55802e-06
1.18992e-06
-2.50887e-06
1.64626e-06
-3.27305e-07
3.03901e-06
-2.8682e-06
4.10163e-06
-4.27244e-06
2.07721e-06
-8.02876e-07
6.81986e-06
-8.09419e-06
-1.98116e-05
2.15738e-05
-1.76213e-06
4.18156e-06
-6.6516e-06
-2.01865e-05
2.26565e-05
8.32186e-06
-8.77074e-06
-7.0278e-06
7.47668e-06
8.50897e-06
-8.48117e-06
2.39661e-06
-2.4244e-06
8.9543e-06
-9.50639e-06
-3.40522e-06
3.9573e-06
1.0032e-05
-1.05315e-05
-4.94508e-06
5.44454e-06
1.09458e-05
-1.12427e-05
-3.32539e-06
3.62234e-06
1.14114e-05
-1.14342e-05
-2.55652e-07
2.78402e-07
1.1281e-05
-1.09023e-05
3.47764e-06
-3.85643e-06
1.02314e-05
-9.1915e-06
7.59425e-06
-8.63412e-06
7.70475e-06
-5.7825e-06
1.16123e-05
-1.35345e-05
3.59455e-06
-1.31184e-06
1.41829e-05
-1.64656e-05
-9.70173e-07
3.20627e-06
1.40861e-05
-1.63222e-05
-5.24404e-06
6.7152e-06
9.78975e-06
-1.12609e-05
-7.18975e-06
6.65286e-06
1.929e-06
-1.39211e-06
-5.66985e-06
4.7773e-06
-3.06056e-06
3.95311e-06
-4.28911e-06
4.2283e-06
-4.78822e-06
4.84903e-06
-4.52179e-06
5.0636e-06
-7.26523e-06
6.72343e-06
-5.36438e-06
4.63822e-06
-7.23071e-06
7.95687e-06
-2.75337e-06
2.90968e-07
-4.03896e-06
6.50137e-06
1.96674e-06
-3.52404e-06
-1.08185e-06
2.63915e-06
4.19116e-06
-3.93291e-06
4.48728e-06
-4.74553e-06
2.71913e-06
-8.11949e-07
9.62539e-06
-1.15326e-05
-2.31562e-05
2.45437e-05
-1.38747e-06
3.29329e-06
-5.04673e-06
-2.47887e-05
2.65421e-05
6.33052e-06
-6.8021e-06
-7.93162e-06
8.40319e-06
6.77275e-06
-7.40162e-06
2.15736e-06
-1.5285e-06
8.68417e-06
-9.75787e-06
-4.77388e-06
5.84758e-06
1.05315e-05
-1.11466e-05
-5.9976e-06
6.61271e-06
1.16271e-05
-1.19756e-05
-3.94036e-06
4.28892e-06
1.22031e-05
-1.23032e-05
-3.33635e-07
4.33768e-07
1.22453e-05
-1.19569e-05
4.19516e-06
-4.48363e-06
1.13278e-05
-1.02336e-05
9.70742e-06
-1.08017e-05
8.58987e-06
-6.65623e-06
1.55953e-05
-1.7529e-05
5.07093e-06
-3.98354e-06
1.85788e-05
-1.96662e-05
2.99957e-06
-1.42548e-06
1.85551e-05
-2.01292e-05
-1.01294e-06
3.91198e-06
1.33225e-05
-1.62215e-05
-6.24374e-06
7.03363e-06
9.71353e-07
-1.76124e-06
-6.5475e-06
5.76739e-06
-4.98775e-06
5.76786e-06
-5.4579e-06
5.64251e-06
-4.90778e-06
4.72316e-06
-6.10153e-06
6.53268e-06
-6.35114e-06
5.92e-06
-6.46486e-06
5.39603e-06
-8.85931e-06
9.92814e-06
-3.19737e-06
2.69725e-07
-9.07561e-06
1.20033e-05
2.6239e-06
-4.69544e-06
-4.39999e-06
6.47153e-06
5.62102e-06
-5.20485e-06
5.04344e-06
-5.45962e-06
2.90135e-06
9.92801e-08
1.39747e-05
-1.69753e-05
-2.57383e-05
2.67612e-05
-1.02293e-06
2.22576e-06
-3.14593e-06
-2.78846e-05
2.88048e-05
3.98877e-06
-4.55432e-06
-8.90353e-06
9.46909e-06
5.03289e-06
-6.52195e-06
4.81204e-07
1.00786e-06
8.56298e-06
-1.00525e-05
-7.1539e-06
8.64346e-06
1.10276e-05
-1.17696e-05
-7.29254e-06
8.03455e-06
1.23328e-05
-1.2759e-05
-4.67535e-06
5.10162e-06
1.30744e-05
-1.32905e-05
-5.86569e-07
8.0265e-07
1.33839e-05
-1.32168e-05
4.70877e-06
-4.8759e-06
1.26092e-05
-1.16772e-05
1.18655e-05
-1.27974e-05
1.11311e-05
-1.22302e-05
1.86345e-05
-1.75354e-05
1.55106e-05
-1.91508e-05
1.85125e-05
-1.48723e-05
2.19227e-05
-2.26625e-05
2.04403e-05
-1.97005e-05
2.19101e-05
-1.97012e-05
1.93653e-05
-2.15742e-05
1.53249e-05
-9.39631e-06
5.34559e-06
-1.12742e-05
3.8278e-06
2.00547e-07
-5.11223e-06
1.08388e-06
-2.65898e-06
4.66031e-06
-3.89144e-06
1.89011e-06
-6.4111e-06
7.91752e-06
-4.97825e-06
3.47183e-06
-8.75048e-06
8.53688e-06
-1.09271e-05
1.11407e-05
-6.80028e-06
3.40341e-06
-1.54946e-05
1.88914e-05
6.51825e-07
-4.02781e-06
-9.09668e-06
1.24727e-05
5.47124e-06
-4.61007e-06
6.16916e-06
-7.03034e-06
1.84078e-06
-5.49712e-07
2.02989e-05
-2.15899e-05
7.1862e-06
-1.25633e-05
5.37707e-06
-7.22731e-06
2.83165e-06
4.39567e-06
1.02378e-05
-2.61993e-05
1.59615e-05
3.55486e-05
-3.4669e-05
-8.79616e-07
2.75679e-05
-1.88718e-05
-8.69611e-06
1.0991e-05
-4.1588e-06
-6.8322e-06
-3.31505e-07
-1.61481e-06
1.94632e-06
1.06911e-05
-1.81263e-05
7.43518e-06
1.86176e-05
-1.28999e-05
-5.71765e-06
7.44078e-06
-7.1676e-06
-2.73182e-07
1.39994e-05
-2.22842e-05
8.28483e-06
2.12861e-05
-1.0829e-05
-1.04571e-05
-5.1046e-06
1.99653e-05
-1.48607e-05
-2.93597e-05
3.41312e-05
-4.77149e-06
-3.25693e-05
2.06999e-05
1.18694e-05
-2.16144e-06
-9.3398e-06
1.15012e-05
1.04195e-05
-4.92795e-06
-5.49157e-06
5.53989e-06
-1.50039e-05
9.46405e-06
1.87848e-05
-9.9121e-06
-8.87273e-06
1.58197e-05
-1.61651e-05
3.45388e-07
2.96815e-06
-1.97705e-05
-1.77503e-05
3.45526e-05
3.40946e-05
-3.56185e-05
-2.65014e-05
2.80253e-05
2.93707e-05
-2.4446e-05
5.75006e-06
-1.06747e-05
2.31841e-05
-2.20972e-05
1.44554e-05
-1.55422e-05
1.89073e-05
-1.49611e-05
1.29519e-05
-1.68982e-05
1.14392e-05
-9.77546e-06
-1.63166e-06
-3.21009e-08
1.35846e-05
-1.89287e-05
-1.45465e-05
1.98906e-05
2.00152e-05
-2.10969e-05
8.91271e-06
-7.83102e-06
2.31336e-05
-2.26706e-05
-3.86171e-06
3.39873e-06
1.59096e-05
-2.74603e-06
-2.66493e-06
-1.04986e-05
-1.01936e-05
2.09825e-05
2.40845e-05
-3.48734e-05
-2.79066e-05
3.20378e-05
2.42808e-05
-2.8412e-05
-3.39265e-05
3.33521e-05
6.30092e-06
-5.7265e-06
-3.29392e-05
3.47093e-05
-1.45099e-05
1.27398e-05
-3.14263e-05
1.57533e-05
-3.21803e-05
4.78534e-05
1.97112e-06
-1.00715e-05
6.1031e-06
1.99729e-06
1.49864e-05
-2.16222e-05
-1.89129e-05
2.55487e-05
1.84812e-05
-9.29232e-06
2.0558e-05
-2.97468e-05
1.42506e-05
-1.0585e-05
-3.66561e-06
9.11341e-06
-1.89506e-05
-4.87769e-05
5.8614e-05
2.04789e-05
-1.72978e-05
-2.25022e-05
1.93211e-05
1.81494e-05
-1.17271e-05
1.55609e-05
-2.19832e-05
5.40924e-06
-1.29461e-05
1.07372e-05
-3.20032e-06
1.65254e-05
-1.69115e-05
1.82365e-05
-1.78504e-05
1.81175e-05
-1.83458e-05
1.82189e-07
4.61305e-08
1.68771e-05
-1.7899e-05
-2.30742e-05
2.40961e-05
2.1994e-05
-2.45871e-05
5.16833e-06
-2.57519e-06
2.13288e-05
-1.03054e-05
2.92047e-06
-1.39439e-05
-2.60818e-06
1.21529e-05
2.23912e-05
-3.1936e-05
-1.91094e-05
2.44607e-05
4.23857e-05
-4.77371e-05
-2.4849e-05
2.42445e-05
2.87962e-05
-2.81917e-05
-2.71749e-05
3.14161e-05
6.47398e-06
-1.07153e-05
-3.46668e-05
2.85875e-05
-1.09883e-05
1.70677e-05
-3.07045e-05
2.79702e-05
-5.53534e-05
5.80878e-05
-1.40095e-05
-2.94982e-06
-1.6449e-05
3.34083e-05
1.08626e-05
-1.51719e-05
-3.06611e-05
3.49703e-05
1.56344e-05
-1.0022e-05
3.67544e-05
-4.23668e-05
5.85612e-06
-6.10126e-07
-5.24599e-06
5.93996e-06
-5.5759e-06
-6.47043e-05
6.43402e-05
2.32305e-06
-6.3969e-06
-2.72222e-05
3.12961e-05
1.51955e-05
-2.1352e-05
2.75233e-05
-2.13668e-05
1.57372e-05
-1.97068e-05
3.34706e-07
3.63489e-06
2.71394e-05
-3.06227e-05
1.59202e-05
-1.24369e-05
3.07204e-05
-2.95491e-05
6.39127e-07
-1.81042e-06
2.73417e-05
-2.64282e-05
-2.37836e-05
2.28701e-05
2.83679e-05
-2.5835e-05
1.53905e-06
-4.07195e-06
1.39593e-05
-5.44854e-07
2.76972e-05
-4.11116e-05
-7.78798e-06
1.37959e-05
3.96725e-05
-4.56803e-05
-1.79088e-05
1.84585e-05
4.99613e-05
-5.0511e-05
-2.03061e-05
2.56846e-05
3.05522e-05
-3.59307e-05
-2.73741e-05
3.04142e-05
1.50241e-05
-1.80643e-05
-3.45045e-05
3.65019e-05
-1.9862e-05
1.78645e-05
-2.78681e-05
2.73089e-05
-5.9502e-05
6.00611e-05
-2.09998e-05
7.13133e-06
-4.97471e-05
6.36155e-05
6.09942e-07
-2.14385e-06
-3.87088e-05
4.02427e-05
3.737e-06
-2.77963e-06
4.60897e-05
-4.70471e-05
-3.94791e-06
6.46718e-06
-2.51926e-06
1.23248e-06
1.26501e-05
-5.45686e-05
4.06861e-05
-2.18335e-05
2.508e-05
-3.31633e-05
2.99168e-05
-2.64588e-05
1.93877e-05
8.72202e-06
-1.65089e-06
-6.84116e-08
-1.99049e-05
-1.03343e-05
3.03076e-05
3.24608e-05
-4.22994e-05
6.39824e-06
3.44038e-06
4.6059e-05
-4.62498e-05
2.59281e-06
-2.40203e-06
4.33343e-05
-3.8021e-05
-2.0701e-05
1.53877e-05
2.91331e-05
-1.7259e-05
1.21339e-05
-2.40081e-05
3.40379e-06
4.68383e-06
5.2129e-05
-6.02167e-05
-7.11773e-06
6.27942e-06
4.85508e-05
-4.77125e-05
-6.31371e-06
1.41519e-05
5.33062e-05
-6.11444e-05
-2.4334e-05
2.30023e-05
3.93141e-05
-3.79824e-05
-1.73895e-05
1.43721e-05
1.83575e-05
-1.53401e-05
-1.71324e-05
2.36427e-05
-1.36906e-05
7.18034e-06
-2.5188e-05
2.46443e-05
-6.07664e-05
6.13101e-05
-1.87838e-05
9.77939e-06
-7.48566e-05
8.3861e-05
-7.51718e-06
1.00233e-05
-3.94135e-05
3.69075e-05
-7.55688e-06
3.62455e-06
4.46451e-05
-4.07128e-05
-5.63742e-06
-4.25502e-07
6.06292e-06
-1.04662e-05
2.21772e-05
-2.88832e-05
1.71722e-05
-2.93266e-05
3.2869e-05
-2.53753e-05
2.18328e-05
-2.97182e-05
2.10622e-05
-4.7744e-06
1.34304e-05
-4.93008e-06
-1.3503e-05
-4.99788e-05
6.84118e-05
3.48009e-05
-5.12748e-05
-1.77946e-05
3.42686e-05
5.42304e-05
-5.2026e-05
1.73713e-06
-3.94152e-06
4.37104e-05
-3.27013e-05
-4.27313e-06
-6.73596e-06
2.25199e-05
-9.96801e-06
3.58401e-05
-4.8392e-05
-2.74055e-06
3.02893e-06
6.47988e-05
-6.50872e-05
2.19767e-06
-9.67364e-06
4.3912e-05
-3.6436e-05
1.23468e-05
-6.52072e-06
7.18415e-05
-7.76676e-05
4.2626e-06
-8.95272e-06
3.47123e-05
-3.00221e-05
1.40049e-05
-1.33575e-05
1.11477e-05
-1.17951e-05
7.52195e-06
5.80132e-06
2.86857e-06
-1.61918e-05
-1.83098e-05
1.507e-05
-6.28281e-05
6.60678e-05
-1.09008e-05
6.72267e-06
-9.07317e-05
9.49098e-05
-4.61661e-06
6.12916e-06
-3.46828e-05
3.31703e-05
-8.61027e-06
6.1148e-06
3.7256e-05
-3.47605e-05
1.51521e-05
-3.29287e-05
1.77766e-05
-3.0187e-05
3.92687e-05
-4.51206e-06
-4.56964e-06
-4.32729e-05
4.43182e-05
-2.02317e-05
1.91864e-05
-3.88103e-05
2.59547e-05
-2.59576e-05
3.88132e-05
-1.17353e-05
-4.21977e-06
-8.55874e-05
0.000101542
2.43816e-05
-3.88892e-05
-4.90596e-05
6.35671e-05
4.19911e-05
-4.42842e-05
6.27953e-06
-3.98644e-06
4.15059e-05
-3.18606e-05
1.34218e-05
-2.30671e-05
1.417e-05
1.46045e-06
6.4566e-05
-8.01965e-05
-3.17089e-06
-2.95062e-06
6.15233e-05
-5.54018e-05
1.29325e-05
-2.46856e-05
2.60015e-05
-1.42484e-05
3.07452e-05
-3.29906e-05
7.67675e-05
-7.45221e-05
3.43073e-05
-3.4436e-05
2.5795e-05
-2.56663e-05
3.17121e-05
-2.66466e-05
1.55242e-05
-2.05898e-05
2.27133e-05
-1.67022e-05
2.85896e-05
-3.46008e-05
7.91493e-06
-7.76177e-06
-6.71665e-05
6.70134e-05
3.93882e-06
1.79312e-06
-9.48208e-05
8.90889e-05
-3.45056e-06
6.66404e-06
-3.07431e-05
2.75297e-05
-1.06147e-05
7.57154e-06
3.23435e-05
-2.93003e-05
-6.50885e-05
5.02773e-05
1.48112e-05
-2.51213e-05
2.82033e-05
9.71337e-06
-1.27953e-05
-2.65553e-05
2.45791e-05
-1.85292e-05
2.05053e-05
-2.69483e-05
2.65306e-05
-4.63522e-05
4.67699e-05
-2.28377e-05
1.64346e-05
-0.000114157
0.00012056
-3.58827e-06
-8.59806e-06
-7.6745e-05
8.89314e-05
1.04732e-05
-1.11708e-05
2.9868e-07
3.9889e-07
1.46773e-05
-1.33246e-05
2.95824e-05
-3.09351e-05
1.96386e-06
4.85396e-06
9.23664e-05
-9.91842e-05
2.0077e-06
-1.04327e-05
4.76976e-05
-3.92726e-05
1.93464e-05
-2.78711e-05
3.65244e-06
4.8722e-06
3.48873e-05
-3.74518e-05
7.24997e-05
-6.99353e-05
3.61408e-05
-2.81969e-05
2.99656e-05
-3.79095e-05
1.92675e-05
-1.51502e-05
2.6406e-05
-3.05233e-05
1.69818e-05
-2.20211e-05
3.34901e-05
-2.84507e-05
2.00619e-05
-9.53441e-06
-6.07191e-05
5.01915e-05
3.49582e-06
-7.30739e-07
-8.51064e-05
8.23413e-05
-2.52272e-06
6.11381e-06
-2.46627e-05
2.10716e-05
-8.8826e-06
5.62435e-06
2.63175e-05
-2.30592e-05
-2.85653e-05
2.95806e-05
-1.0153e-06
2.69846e-06
-2.50796e-06
-2.92867e-05
2.90962e-05
2.86494e-06
-4.0405e-06
-9.94978e-06
1.11253e-05
8.05786e-06
-1.46571e-05
-3.19232e-06
9.79156e-06
1.95097e-05
-2.26263e-05
-1.02054e-05
1.3322e-05
2.50015e-05
-2.68351e-05
-8.82866e-06
1.06622e-05
2.82847e-05
-2.95215e-05
-5.56809e-06
6.80485e-06
3.06168e-05
-3.15406e-05
-1.11587e-06
2.03968e-06
3.20808e-05
-3.17552e-05
5.03982e-06
-5.36543e-06
3.16155e-05
-3.67226e-05
1.31886e-05
-8.08151e-06
5.38666e-05
-7.28881e-05
1.27163e-05
6.30519e-06
8.23879e-05
-8.57335e-05
1.1951e-05
-8.6054e-06
8.94077e-05
-9.34459e-05
1.82297e-05
-1.41914e-05
9.5243e-05
-9.36503e-05
2.26402e-05
-2.4233e-05
8.85227e-05
-8.02365e-05
1.63274e-05
-2.46137e-05
7.04886e-05
-6.08565e-05
4.23848e-06
-1.38707e-05
5.11668e-05
-4.03841e-05
1.1866e-06
-1.19694e-05
2.93714e-05
-2.0627e-05
-1.43683e-06
-7.30752e-06
1.74866e-05
-1.71933e-05
-9.58958e-06
9.29624e-06
1.65387e-05
-1.50797e-05
-1.99715e-05
1.85125e-05
1.54258e-05
-1.73591e-05
-1.55103e-05
1.74437e-05
1.99947e-05
-2.88796e-05
6.3007e-06
2.58417e-06
4.51692e-05
-6.02e-05
1.96891e-05
-4.65829e-06
-2.92038e-05
2.78078e-05
1.39607e-06
1.02356e-06
-5.44849e-07
-2.83549e-05
2.78762e-05
3.08552e-07
-4.85565e-06
-1.32272e-05
1.77743e-05
1.34557e-05
-1.96068e-05
-1.69805e-05
2.31316e-05
2.30374e-05
-2.58846e-05
-1.62616e-05
1.91088e-05
2.83391e-05
-3.03334e-05
-1.26222e-05
1.46165e-05
3.2074e-05
-3.36528e-05
-8.3083e-06
9.88709e-06
3.50263e-05
-3.62352e-05
-3.0487e-06
4.25752e-06
3.80354e-05
-4.47467e-05
4.38217e-06
2.32908e-06
6.47318e-05
-9.98836e-05
-1.36789e-05
4.88307e-05
0.000119202
-0.000120798
-1.99625e-05
2.15576e-05
0.000123319
-0.000131542
3.7308e-06
4.49217e-06
0.000147308
-0.000160032
5.82945e-06
6.89407e-06
0.000162307
-0.000159205
2.57334e-05
-2.88363e-05
0.000153884
-0.000147026
3.23368e-05
-3.9194e-05
0.000138833
-0.000130209
2.51042e-05
-3.37279e-05
0.000123562
-0.000119926
2.63833e-05
-3.00199e-05
0.000117197
-0.000112068
1.61923e-05
-2.13204e-05
0.000103851
-9.56474e-05
-1.03071e-05
2.10336e-06
9.03226e-05
-9.05364e-05
-1.90617e-05
1.92755e-05
9.32574e-05
-9.48344e-05
-2.00331e-05
2.16101e-05
9.10225e-05
-7.84294e-05
-1.14188e-05
-1.17435e-06
6.22863e-05
-5.16658e-05
3.20833e-08
-1.06526e-05
-2.70938e-05
2.90683e-05
-1.97451e-06
1.38412e-07
-2.86751e-06
-2.83715e-05
3.11006e-05
8.37059e-06
-1.55415e-05
-2.47109e-05
3.18818e-05
2.02913e-05
-2.25646e-05
-2.74013e-05
2.96746e-05
2.46864e-05
-2.71292e-05
-2.18013e-05
2.4244e-05
2.9262e-05
-3.08597e-05
-1.65466e-05
1.81443e-05
3.20463e-05
-3.30466e-05
-1.13059e-05
1.23062e-05
3.43665e-05
-3.66513e-05
-5.79425e-06
8.07906e-06
3.99546e-05
-4.52329e-05
-1.12975e-05
1.65759e-05
5.67354e-05
-8.01012e-05
-8.36586e-05
0.000107024
0.000108186
-0.000115576
-2.85507e-05
3.59406e-05
0.000120823
-0.000126944
-1.37625e-05
1.98842e-05
0.000132831
-0.000143928
-1.4745e-05
2.58421e-05
0.000154041
-0.000156089
2.94359e-05
-2.73874e-05
0.000156669
-0.000157274
4.50184e-05
-4.44129e-05
0.000154764
-0.000148494
4.00684e-05
-4.63389e-05
0.000140598
-0.000134837
3.19895e-05
-3.77507e-05
0.000133158
-0.0001357
2.1896e-05
-1.93536e-05
0.000139212
-0.000138814
1.38766e-06
-1.7859e-06
0.00013438
-0.000123429
-1.51511e-05
4.20091e-06
0.000103798
-7.55592e-05
-5.84303e-06
-2.23958e-05
3.96259e-05
-4.96674e-06
2.86599e-05
-6.3319e-05
1.90721e-05
-5.68602e-05
6.54081e-06
3.12472e-05
-3.57576e-05
4.78647e-05
-1.21071e-05
1.36197e-05
-2.1165e-05
-3.72216e-05
4.47669e-05
2.67088e-05
-2.90453e-05
-3.63338e-05
3.86703e-05
2.84754e-05
-2.85578e-05
-3.17424e-05
3.18248e-05
3.11899e-05
-3.50724e-05
-2.69947e-05
3.08771e-05
3.76732e-05
-3.79203e-05
-1.82094e-05
1.84566e-05
3.7874e-05
-3.69021e-05
-1.22139e-05
1.12421e-05
3.27993e-05
-3.0765e-05
-6.87999e-06
4.84574e-06
3.72059e-05
-4.71964e-05
-2.29771e-05
3.29675e-05
5.68836e-05
-5.62714e-05
-0.000114985
0.000114373
5.53401e-05
-6.31941e-05
-4.41874e-05
5.20414e-05
6.16929e-05
-5.27706e-05
-1.33261e-05
4.40388e-06
3.76275e-05
-1.72146e-05
-2.32654e-05
2.85246e-06
-4.933e-06
2.89907e-05
2.14955e-05
-4.55532e-05
-6.45855e-05
3.13012e-05
1.519e-05
1.80942e-05
6.20231e-05
-9.43219e-05
4.04087e-05
-8.10994e-06
0.000102178
-0.000107363
4.50353e-05
-3.98498e-05
0.000106627
-0.000106527
1.40089e-05
-1.41089e-05
0.00011475
-0.000117804
-2.22335e-07
3.27702e-06
0.000109477
-9.32817e-05
1.54156e-05
-3.16107e-05
6.60695e-05
-1.83245e-05
5.58762e-05
-0.000103621
7.86135e-06
-4.57485e-05
6.96107e-05
-3.17235e-05
7.10842e-05
-8.37418e-05
-5.60111e-05
6.86687e-05
-6.44631e-05
8.29619e-05
-1.84989e-05
3.8715e-05
-6.47091e-05
-5.65049e-05
8.24991e-05
7.54392e-05
-6.92545e-05
-3.38128e-05
2.76281e-05
5.93881e-05
-5.30755e-05
-2.97334e-05
2.34207e-05
5.05693e-05
-5.03656e-05
-3.58353e-05
3.56315e-05
5.08963e-05
-5.45041e-05
-2.17392e-05
2.5347e-05
6.97496e-05
-0.000100772
-1.26997e-05
4.37217e-05
0.000126586
-0.000137065
-1.42866e-05
2.47654e-05
0.000134505
-0.000122214
-3.8102e-05
2.58109e-05
0.000105302
-7.35817e-05
-0.000105157
7.34369e-05
4.40844e-05
-4.08243e-05
-4.35974e-05
4.03373e-05
4.39621e-05
-3.66454e-05
-5.53998e-06
-1.77675e-06
1.70469e-05
9.14247e-06
2.43682e-05
-5.05576e-05
-3.47783e-05
2.92636e-05
8.90145e-05
-8.34998e-05
-4.06884e-05
6.22491e-05
-5.95591e-06
-1.56048e-05
-8.20146e-05
6.06719e-05
-4.6756e-05
6.80988e-05
-8.32103e-06
-3.42607e-05
1.07429e-05
3.18388e-05
5.71937e-05
-7.00692e-05
-6.2951e-06
1.91706e-05
7.16146e-05
-6.40593e-05
-1.12485e-06
-6.43043e-06
2.20169e-05
1.63121e-05
5.7217e-05
-9.5546e-05
-3.37029e-06
-3.78422e-05
0.000108313
-6.71005e-05
8.19298e-05
-0.000109202
-1.33251e-05
4.05976e-05
9.82784e-05
-4.41986e-05
-4.7749e-05
-6.33081e-06
-0.000104153
0.000143159
-3.90061e-05
8.38134e-05
-0.000118173
-0.000122131
0.00015649
0.000108247
-0.000101812
-1.57509e-05
9.31539e-06
0.000104419
-0.000105537
-2.1967e-05
2.30848e-05
0.000103082
-0.000100782
-3.05543e-05
2.82543e-05
0.000111865
-0.00014422
-4.9584e-05
8.19397e-05
0.000176406
-0.000190703
-8.58894e-05
0.000100187
0.000184074
-0.000164445
-9.06679e-06
-1.05624e-05
0.000150408
-0.000146128
-1.08573e-05
6.57794e-06
0.000146335
-0.000144006
-4.76592e-05
4.53304e-05
0.000144741
-0.000151281
-3.43449e-05
4.08843e-05
0.0001445
-0.000132117
5.94917e-06
-1.8332e-05
0.00011805
-0.000113068
5.47067e-05
-5.96892e-05
0.000113016
-0.000114608
8.21617e-05
-8.05698e-05
0.000110843
-9.51082e-05
5.20333e-05
-6.7768e-05
5.34406e-05
-4.14751e-06
-3.45089e-05
-1.47842e-05
-1.94744e-05
1.77275e-05
-6.01427e-05
6.18896e-05
-2.54837e-06
-1.12279e-05
-3.39943e-05
4.77705e-05
2.75297e-06
1.68214e-05
2.96011e-05
-4.91754e-05
-6.43829e-06
-2.04415e-05
8.66228e-05
-5.9743e-05
3.8709e-05
-4.38145e-05
4.03072e-05
-3.52017e-05
5.28933e-05
-4.46879e-05
-4.74718e-05
3.92664e-05
1.78173e-05
-1.39528e-05
4.1206e-05
-4.50705e-05
-0.000218129
0.000307105
-8.89759e-05
0.000133766
-0.000136713
-0.000167344
0.000170291
0.000123468
-0.000127259
-1.11763e-05
1.49668e-05
0.000133974
-0.00014535
-2.91341e-05
4.05098e-05
0.000165279
-0.000178187
-4.09408e-05
5.3849e-05
0.000173662
-0.000158286
-7.74208e-05
6.20447e-05
0.000133362
-0.000112638
-0.00011153
9.08058e-05
0.000113094
-0.000116307
1.35984e-05
-1.03851e-05
0.000103229
-5.74787e-05
2.32142e-05
-6.89648e-05
-1.19131e-05
9.06963e-05
-1.85405e-05
-6.02426e-05
-0.00014747
0.000145095
-6.13572e-05
6.37325e-05
-8.43326e-05
1.48845e-05
1.7092e-05
5.2356e-05
3.65416e-05
-7.10049e-05
5.28684e-05
-1.8405e-05
9.10567e-05
-0.000100944
7.80196e-05
-6.81323e-05
0.000106113
-0.000109011
6.95141e-05
-6.66161e-05
0.000110814
-0.000105866
4.23853e-05
-4.73338e-05
8.98977e-05
-6.69161e-05
-4.13869e-05
1.84053e-05
5.35614e-05
-4.27806e-05
-4.50032e-05
3.42224e-05
3.32036e-05
-4.20317e-05
4.51989e-05
-3.63708e-05
5.15069e-05
-5.35603e-05
4.39852e-05
-4.19317e-05
5.39182e-05
-4.9964e-05
2.78258e-05
-3.17801e-05
3.09249e-05
-1.49107e-05
-2.54995e-05
9.48528e-06
2.51461e-05
-1.82314e-05
4.54193e-05
-5.2334e-05
-0.000375384
0.000414521
-3.91369e-05
7.91088e-05
-0.000101473
-0.000185655
0.000208019
0.000106132
-0.000110194
-1.92747e-05
2.33365e-05
0.000113856
-0.000121978
-5.20429e-05
6.0165e-05
0.000145095
-0.000164623
-6.00902e-05
7.96184e-05
0.00017219
-0.000166957
-5.0682e-05
4.54489e-05
0.000148704
-0.00012549
-5.84172e-05
3.52032e-05
9.90146e-05
-6.85663e-05
1.83481e-05
-4.87964e-05
4.49975e-05
-3.80335e-05
8.98755e-05
-9.68395e-05
3.32298e-05
-2.51533e-05
8.48855e-05
-9.29621e-05
1.07777e-05
3.77641e-05
3.60052e-06
-5.21423e-05
-5.47642e-05
3.00561e-05
-0.000115883
0.000140591
5.88081e-06
-3.22463e-05
-1.17135e-05
3.8079e-05
4.78259e-05
-4.41588e-05
4.87483e-05
-5.24155e-05
4.63986e-05
-7.05592e-05
5.47205e-05
-3.05598e-05
8.99536e-05
-9.88064e-05
4.0936e-05
-3.20832e-05
0.000103773
-0.000108289
-1.10709e-05
1.55871e-05
9.04177e-05
-7.04639e-05
-1.39529e-05
-6.00084e-06
7.21577e-05
-7.13302e-05
3.30424e-05
-3.38699e-05
6.81785e-05
-6.6465e-05
4.31407e-05
-4.48542e-05
7.25783e-05
-7.82558e-05
4.01684e-05
-3.4491e-05
7.78455e-05
-6.33608e-05
7.91343e-06
-2.23982e-05
4.45029e-05
-5.07204e-05
3.76039e-05
-3.13864e-05
-0.000437166
0.000451994
-1.48285e-05
3.78788e-05
-5.31727e-05
-0.000221762
0.000237056
8.01649e-05
-8.73461e-05
-2.91116e-05
3.62928e-05
9.16576e-05
-9.32146e-05
-6.33854e-05
6.49423e-05
9.73877e-05
-0.000140324
-0.000130682
0.000173619
0.000157424
-0.00014947
-5.93262e-05
5.13726e-05
0.000125313
-9.93908e-05
1.60492e-05
-4.19717e-05
8.38405e-05
-7.54922e-05
8.6505e-05
-9.48532e-05
6.99169e-05
-6.57609e-05
0.000102298
-0.000106454
6.12368e-05
-5.77218e-05
9.63494e-05
-9.98645e-05
6.26821e-05
-7.94895e-05
5.14646e-05
-3.46572e-05
8.47577e-05
-9.24647e-05
-0.000138841
0.000146548
9.1658e-05
-7.86134e-05
-5.15874e-05
3.85427e-05
4.7916e-05
-2.94045e-05
7.24656e-05
-9.0977e-05
2.10906e-05
2.6526e-06
2.08851e-05
-4.46283e-05
3.42485e-05
-8.12983e-05
1.48538e-05
3.2196e-05
9.25561e-05
-8.91538e-05
-4.96612e-06
1.56391e-06
7.91733e-05
-7.50604e-05
3.24693e-06
-7.35988e-06
7.64381e-05
-8.00956e-05
4.50756e-05
-4.1418e-05
8.14001e-05
-7.68769e-05
3.44954e-05
-3.90186e-05
7.03673e-05
-6.67608e-05
3.29454e-05
-3.65519e-05
6.61907e-05
-6.80549e-05
3.06596e-05
-2.87954e-05
7.37647e-05
-7.88002e-05
2.99013e-05
-2.48657e-05
-0.000464016
0.000479125
-1.5109e-05
2.38301e-05
-4.072e-05
-0.000255338
0.000272228
6.26316e-05
-7.06849e-05
-4.35618e-05
5.16151e-05
7.8918e-05
-8.5635e-05
-6.84742e-05
7.51912e-05
9.62561e-05
-8.94633e-05
-0.000198757
0.000191964
9.15902e-05
-0.000104052
-5.57332e-05
6.81947e-05
0.000109429
-0.000100773
5.20873e-05
-6.07434e-05
9.60156e-05
-9.41896e-05
9.79558e-05
-9.97818e-05
9.24175e-05
-9.44479e-05
0.000108649
-0.000106618
9.43024e-05
-9.09834e-05
0.000104354
-0.000107673
9.70672e-05
-0.000121746
1.04211e-05
1.42574e-05
0.000128241
-0.000134167
-0.000154508
0.000160434
0.000105227
-6.68919e-05
4.74765e-06
-4.30832e-05
5.66494e-05
-5.12279e-05
9.90102e-05
-0.000104432
5.02789e-05
-4.93619e-05
6.07248e-05
-6.16417e-05
1.32244e-05
-1.99613e-05
-7.701e-05
8.37469e-05
3.36936e-05
-2.66167e-05
-4.27334e-06
-2.8036e-06
3.34093e-05
-5.07779e-05
-2.35375e-07
1.7604e-05
5.45054e-05
-5.89471e-05
4.0378e-05
-3.59363e-05
5.81377e-05
-5.7011e-05
4.58919e-05
-4.70186e-05
5.68579e-05
-5.73713e-05
3.80309e-05
-3.75176e-05
5.80108e-05
-5.90336e-05
2.48046e-05
-2.37818e-05
6.14843e-05
-6.63661e-05
1.61998e-05
-1.1318e-05
-0.000503766
0.000542279
-3.8513e-05
4.62642e-05
-5.20501e-05
-0.000284441
0.000290227
4.79613e-05
-5.96652e-05
-6.1536e-05
7.32399e-05
7.05158e-05
-8.04888e-05
-8.44553e-05
9.44283e-05
9.24731e-05
-7.43663e-05
-0.00016898
0.000150873
7.29616e-05
-8.00194e-05
-8.1575e-05
8.86328e-05
8.37193e-05
-9.34525e-05
6.32106e-05
-5.34774e-05
9.97953e-05
-9.74024e-05
0.000102069
-0.000104462
0.000100423
-0.000104941
0.00010105
-9.65319e-05
0.000108376
-0.0001134
0.000105069
-0.000100046
0.000109569
-0.000104614
-1.92562e-05
1.4301e-05
7.81411e-05
-4.82981e-05
-0.000155757
0.000125914
4.97265e-05
-6.06017e-05
5.11116e-05
-4.02364e-05
6.51295e-05
-6.88274e-05
0.000107509
-0.000103811
7.00946e-05
-6.3938e-05
5.98502e-05
-6.60069e-05
4.85836e-05
-2.05606e-05
-4.74981e-05
1.94751e-05
1.8045e-05
-3.32201e-05
-1.5522e-07
1.53304e-05
4.14813e-05
-4.51145e-05
-2.72455e-05
3.08788e-05
4.76513e-05
-4.64968e-05
3.26426e-05
-3.37971e-05
4.79084e-05
-4.99438e-05
4.55691e-05
-4.35337e-05
5.14225e-05
-5.21182e-05
3.66012e-05
-3.59056e-05
5.21109e-05
-5.1287e-05
2.46506e-05
-2.54745e-05
4.96427e-05
-4.70853e-05
1.38857e-05
-1.6443e-05
-0.000594825
0.000656499
-6.16739e-05
7.56425e-05
-5.45062e-05
-0.00028302
0.000261884
4.66502e-05
-5.79527e-05
-8.45718e-05
9.58743e-05
6.93154e-05
-8.60977e-05
-0.000108192
0.000124974
8.33063e-05
-7.99503e-05
-0.000141385
0.000138029
7.36762e-05
-5.51354e-05
-7.69086e-05
5.83679e-05
5.04256e-05
-6.81003e-05
3.51889e-05
-1.75143e-05
8.0702e-05
-8.13e-05
0.000101659
-0.000101061
7.87174e-05
-8.06078e-05
9.37417e-05
-9.18513e-05
8.81928e-05
-9.45544e-05
9.645e-05
-9.00883e-05
8.83009e-05
-4.93281e-05
1.41516e-05
-5.31244e-05
-5.3477e-06
5.51394e-05
-8.62393e-05
3.64477e-05
-6.6281e-05
3.1769e-05
1.4177e-05
2.03349e-05
1.47101e-05
-4.79498e-05
8.61419e-05
-5.29023e-05
6.42795e-05
-6.51566e-05
6.23628e-05
-6.14856e-05
5.97089e-05