/*--------------------------------*- C++ -*----------------------------------*\
| =========                 |                                                 |
| \\      /  F ield         | OpenFOAM: The Open Source CFD Toolbox           |
|  \\    /   O peration     | Version:  v1912                                 |
|   \\  /    A nd           | Website:  www.openfoam.com                      |
|    \\/     M anipulation  |                                                 |
\*---------------------------------------------------------------------------*/
FoamFile
{
    version     2.0;
    format      ascii;
    class       volVectorField;
    location    "0.9";
    object      U;
}
// * * * * * * * * * * * * * * * * * * * * * * * * * * * * * * * * * * * * * //

dimensions      [0 1 -1 0 0 0 0];


internalField   nonuniform List<vector> 
9072
(
(-0.0152346 0.0027807 0)
(-0.00385815 -0.00181082 0)
(-0.0447191 0.0102015 0)
(-0.10598 0.00556893 0)
(-0.123364 -0.00184488 0)
(-0.134333 -0.00034406 0)
(-0.154026 0.00304184 0)
(-0.174319 0.0034668 0)
(-0.187232 0.00385682 0)
(-0.173626 -0.00485898 0)
(-0.125696 -0.0172235 0)
(-0.0825549 -0.011796 0)
(-0.10427 0.0193133 0)
(-0.124883 0.00150997 0)
(-0.0506695 -0.0125436 0)
(0.0110376 -0.0130375 0)
(0.101665 -0.0217322 0)
(0.185772 0.0148912 0)
(-0.0757394 0.0437789 0)
(-0.294156 -0.00167276 0)
(-0.154649 -0.0149651 0)
(-0.0708428 -0.0107337 0)
(-0.00897033 -0.00818924 0)
(-0.0307007 0.0474893 0)
(-0.106378 0.0252865 0)
(-0.151102 0.0255363 0)
(-0.147551 0.014273 0)
(-0.17484 0.0200658 0)
(-0.21484 0.016567 0)
(-0.232241 0.00917133 0)
(-0.230297 0.00156847 0)
(-0.216274 -0.00669988 0)
(-0.205699 -0.0109021 0)
(-0.202277 -0.00532236 0)
(-0.176254 -0.0166325 0)
(-0.0911455 -0.0270611 0)
(-0.000710622 -0.0397291 0)
(0.0329627 -0.0242399 0)
(0.00881218 -0.00887682 0)
(-0.0661239 -0.0415082 0)
(-0.0972918 0.0354874 0)
(-0.263264 0.17402 0)
(-0.148109 -0.0650175 0)
(-0.084514 -0.0557129 0)
(-0.0491235 -0.0297405 0)
(-0.0219328 -0.0264424 0)
(-0.0294348 0.0943105 0)
(-0.111333 0.059251 0)
(-0.187703 0.0364454 0)
(-0.176663 0.0106928 0)
(-0.167788 0.0298146 0)
(-0.184825 0.0274247 0)
(-0.206512 0.0153633 0)
(-0.218866 0.000867683 0)
(-0.211935 -0.0136731 0)
(-0.184129 -0.0220023 0)
(-0.128855 -0.027832 0)
(-0.0523694 -0.0467266 0)
(0.0167378 -0.0609806 0)
(0.0573653 -0.0555998 0)
(0.0663766 -0.0260163 0)
(0.0640515 0.0135595 0)
(0.013612 0.024531 0)
(-0.165316 0.0727291 0)
(-0.134458 0.146613 0)
(0.000392584 -0.0925939 0)
(-0.0477944 -0.0591209 0)
(-0.0502864 -0.0384761 0)
(-0.0273398 -0.0383783 0)
(-0.0268173 0.138557 0)
(-0.126 0.109673 0)
(-0.231486 0.0533648 0)
(-0.206451 -0.00528672 0)
(-0.187656 0.0310686 0)
(-0.201663 0.0367969 0)
(-0.221979 0.0243746 0)
(-0.232087 0.00253594 0)
(-0.224519 -0.0219319 0)
(-0.193361 -0.0436734 0)
(-0.132289 -0.0629885 0)
(-0.0551054 -0.0820369 0)
(0.0152566 -0.0876429 0)
(0.0647071 -0.0682544 0)
(0.0810975 -0.0258399 0)
(0.0715184 0.0159149 0)
(0.0668235 0.0517676 0)
(0.0377893 0.110586 0)
(0.101029 0.0755886 0)
(0.0659051 -0.0575167 0)
(-0.0395478 -0.0381194 0)
(-0.0589317 -0.0420406 0)
(-0.0345192 -0.0564023 0)
(-0.0243557 0.182429 0)
(-0.137143 0.17244 0)
(-0.233371 0.0673581 0)
(-0.210382 -0.0207539 0)
(-0.204651 0.0321359 0)
(-0.220629 0.0460401 0)
(-0.238502 0.0312901 0)
(-0.245608 0.00277063 0)
(-0.236825 -0.0308528 0)
(-0.20492 -0.0654 0)
(-0.143256 -0.0974398 0)
(-0.060563 -0.119486 0)
(0.0245932 -0.120131 0)
(0.0901547 -0.086627 0)
(0.109811 -0.0247278 0)
(0.0907413 0.0230973 0)
(0.07874 0.0516015 0)
(0.100052 0.0925453 0)
(0.144881 0.0674588 0)
(0.0539125 0.00260829 0)
(-0.0470944 -0.0107752 0)
(-0.0710944 -0.0451708 0)
(-0.0350093 -0.0801026 0)
(-0.0212106 0.223511 0)
(-0.126472 0.231666 0)
(-0.20149 0.0778273 0)
(-0.187741 -0.0268749 0)
(-0.212623 0.0391339 0)
(-0.235191 0.0559955 0)
(-0.254051 0.0374939 0)
(-0.261669 0.00286816 0)
(-0.25446 -0.0396116 0)
(-0.22366 -0.0874398 0)
(-0.156106 -0.134942 0)
(-0.0564395 -0.165148 0)
(0.0482338 -0.163803 0)
(0.139187 -0.112142 0)
(0.162132 -0.0177151 0)
(0.119639 0.0373421 0)
(0.0952315 0.051481 0)
(0.107747 0.0749606 0)
(0.119178 0.0817359 0)
(0.038196 0.0570045 0)
(-0.0669114 0.0199292 0)
(-0.0979165 -0.0497127 0)
(-0.0397377 -0.112703 0)
(-0.0174117 0.257744 0)
(-0.0976472 0.277782 0)
(-0.154407 0.0876527 0)
(-0.152767 -0.0209127 0)
(-0.21484 0.0568446 0)
(-0.248335 0.0679477 0)
(-0.27019 0.0443612 0)
(-0.280482 0.00406012 0)
(-0.27749 -0.0469121 0)
(-0.248598 -0.110758 0)
(-0.174413 -0.180374 0)
(-0.101107 -0.209539 0)
(-0.0542579 -0.212383 0)
(0.0524911 -0.162538 0)
(0.162367 -0.0118691 0)
(0.142915 0.0582036 0)
(0.124099 0.0523282 0)
(0.143203 0.0672528 0)
(0.139857 0.102076 0)
(0.0442982 0.113611 0)
(-0.0884391 0.0578634 0)
(-0.132029 -0.056636 0)
(-0.0197547 -0.165385 0)
(-0.0136311 0.2837 0)
(-0.0624469 0.306865 0)
(-0.0994077 0.0989569 0)
(-0.122711 0.00206236 0)
(-0.218707 0.0849761 0)
(-0.261578 0.0826115 0)
(-0.287207 0.0526712 0)
(-0.301508 0.0072645 0)
(-0.305161 -0.0517429 0)
(-0.277595 -0.132517 0)
(-0.254484 -0.20092 0)
(-0.397148 -0.18949 0)
(-0.516517 -0.217385 0)
(-0.493013 -0.220768 0)
(-0.28661 -0.088059 0)
(-0.0258087 0.0427698 0)
(0.0839297 0.0370773 0)
(0.161658 0.0453455 0)
(0.201945 0.118772 0)
(0.128576 0.18603 0)
(-0.0622453 0.115353 0)
(-0.132072 -0.0730713 0)
(-0.00968124 -0.237468 0)
(0.0444098 -0.102793 0)
(0.16914 -0.00264576 0)
(-0.445296 0.0849723 0)
(-0.854633 0.00912786 0)
(-0.524054 -0.049439 0)
(-0.172577 -0.0331301 0)
(0.0387547 0.0197731 0)
(-0.359571 0.0417657 0)
(-0.367404 -0.0396309 0)
(-0.13519 -0.0409534 0)
(-0.459554 0.0606868 0)
(-0.37538 -0.0563676 0)
(0.301925 -0.0982342 0)
(0.726839 -0.0356305 0)
(0.696042 0.0867946 0)
(-0.188178 0.0192287 0)
(-0.184053 -0.0363398 0)
(-0.247 0.0464664 0)
(-0.347069 -0.0199191 0)
(-0.0379551 -0.166952 0)
(-0.225894 0.255384 0)
(-0.879468 0.255917 0)
(-0.582724 -0.0927957 0)
(-0.522144 -0.161435 0)
(-0.383188 -0.156738 0)
(-0.247167 0.0101365 0)
(-0.40451 0.165821 0)
(-0.450382 -0.087556 0)
(-0.541536 0.0546139 0)
(-0.264499 -0.0278732 0)
(0.369126 -0.294071 0)
(0.688376 -0.27467 0)
(0.774638 -0.0662273 0)
(0.772783 0.131083 0)
(0.595561 0.402912 0)
(-0.175221 -0.0346933 0)
(-0.487564 0.217292 0)
(-0.284194 -0.259409 0)
(-0.0999495 -0.120496 0)
(-0.361217 0.529609 0)
(-0.39009 0.198315 0)
(-0.449407 -0.192207 0)
(-0.140008 -0.058774 0)
(-0.363829 -0.176708 0)
(-0.455018 0.00863472 0)
(-0.348816 0.237512 0)
(-0.555006 -0.0353744 0)
(-0.389759 -0.0699729 0)
(0.203186 -0.267673 0)
(0.51224 -0.448705 0)
(0.531086 -0.272003 0)
(0.655606 -0.0661618 0)
(0.673796 0.151319 0)
(0.739786 0.557831 0)
(0.0765207 0.236777 0)
(-0.357553 0.310026 0)
(-0.322182 -0.395995 0)
(-0.132982 -0.0295929 0)
(-0.213764 0.641196 0)
(-0.0213969 0.294589 0)
(-0.457816 -0.27065 0)
(-0.284492 0.0172901 0)
(-0.673799 -0.141943 0)
(-0.726106 -0.0151751 0)
(-0.567423 0.225304 0)
(-0.677433 -0.0139268 0)
(-0.129412 -0.340001 0)
(0.256446 -0.421396 0)
(0.437228 -0.487818 0)
(0.500367 -0.324764 0)
(0.685981 -0.169601 0)
(0.857473 0.184362 0)
(0.65455 0.581817 0)
(0.329342 0.556216 0)
(-0.0539566 0.391956 0)
(-0.0648641 -0.453545 0)
(-0.0807402 0.0547967 0)
(-0.00987173 0.478988 0)
(0.58392 0.329403 0)
(0.618173 -0.0194619 0)
(-0.35321 0.183617 0)
(-0.86179 -0.020865 0)
(-1.09488 -0.0210755 0)
(-0.927709 0.192687 0)
(-0.543979 -0.176393 0)
(0.0498449 -0.558565 0)
(0.174226 -0.477117 0)
(0.151557 -0.542088 0)
(0.632889 -0.388299 0)
(0.341799 -0.168841 0)
(0.459099 0.107556 0)
(0.5654 0.595122 0)
(0.32947 0.774138 0)
(0.206094 0.370234 0)
(0.150966 -0.409489 0)
(-0.0147771 0.0417939 0)
(0.355882 0.22702 0)
(0.738621 0.224384 0)
(0.611769 0.0828529 0)
(-0.137876 0.57828 0)
(-1.05425 0.262363 0)
(-1.26218 -0.0230025 0)
(-0.864224 -0.0398192 0)
(-0.425124 -0.404186 0)
(0.0868327 -0.639329 0)
(-0.128794 -0.394623 0)
(-0.323759 -0.746343 0)
(-0.0751027 -0.328339 0)
(-0.350483 -0.0985658 0)
(-0.0865461 -0.0922395 0)
(0.36411 0.609044 0)
(0.178264 0.909233 0)
(0.0998882 0.333329 0)
(0.216255 -0.352011 0)
(0.282737 -0.239755 0)
(0.799449 -0.0188478 0)
(1.01498 0.171322 0)
(0.781048 0.321386 0)
(0.156097 0.917306 0)
(-0.774555 0.497802 0)
(-0.996515 -0.0616442 0)
(-0.88432 -0.155701 0)
(-0.0780412 -0.684773 0)
(0.0134746 -0.574838 0)
(-0.415988 -0.19617 0)
(-0.759515 -0.735004 0)
(-0.766402 -0.229405 0)
(-0.674932 -0.181564 0)
(-0.497859 -0.314289 0)
(-0.221046 0.668414 0)
(0.000731659 0.899163 0)
(0.0892218 0.279162 0)
(0.259649 -0.298949 0)
(0.303082 -0.577385 0)
(0.619623 -0.133382 0)
(0.545868 0.144579 0)
(0.664854 0.463605 0)
(0.590221 1.15227 0)
(0.0482097 0.923045 0)
(-0.191866 0.0190556 0)
(-0.384396 -0.325762 0)
(0.152932 -0.957043 0)
(-0.144319 -0.422862 0)
(-0.541511 0.0063071 0)
(-0.85258 -0.695639 0)
(-0.758468 -0.340811 0)
(-0.384013 -0.275823 0)
(-0.448188 -0.31538 0)
(-0.337382 0.542565 0)
(-0.0478219 0.810648 0)
(0.104109 0.229663 0)
(0.17644 -0.241476 0)
(-0.00156278 0.317462 0)
(-0.029039 0.3181 0)
(-0.0348787 0.117132 0)
(-0.124116 0.0689943 0)
(-0.229844 0.127995 0)
(-0.279695 0.10514 0)
(-0.310813 0.0661472 0)
(-0.334225 0.0165611 0)
(-0.344319 -0.0557084 0)
(-0.342099 -0.142814 0)
(-0.697044 -0.0477142 0)
(-0.898118 -0.0925765 0)
(-0.989789 -0.17259 0)
(-1.02843 -0.253714 0)
(-0.913584 -0.203929 0)
(-0.69969 -0.0845479 0)
(-0.49313 -0.0443119 0)
(-0.264662 -0.00517699 0)
(-0.187919 0.074428 0)
(-0.16241 0.205334 0)
(-0.166127 0.199826 0)
(-0.236742 -0.0594243 0)
(-0.606063 -0.119332 0)
(0.0186285 0.30733 0)
(-0.0141309 0.302903 0)
(-0.00509754 0.159012 0)
(-0.192718 0.220309 0)
(-0.263195 0.191056 0)
(-0.315751 0.146841 0)
(-0.35373 0.097988 0)
(-0.383093 0.0397844 0)
(-0.422894 -0.0223658 0)
(-0.871808 0.344093 0)
(-1.29259 0.18846 0)
(-1.35208 -0.0213827 0)
(-1.67578 0.0248487 0)
(-1.73262 -0.277262 0)
(-1.62299 -0.381084 0)
(-1.44063 -0.335046 0)
(-1.28235 -0.334347 0)
(-1.26093 -0.231565 0)
(-1.06374 0.021282 0)
(-0.963103 0.202147 0)
(-1.01033 0.253902 0)
(-0.931295 0.0903258 0)
(-0.594323 -0.0168752 0)
(-0.0240239 0.295501 0)
(-0.012261 0.313175 0)
(-0.129991 0.308095 0)
(-0.234286 0.316174 0)
(-0.278302 0.253483 0)
(-0.323384 0.19099 0)
(-0.35011 0.131199 0)
(-0.379314 0.0728968 0)
(-0.449701 0.179211 0)
(-0.707038 1.03757 0)
(-1.20783 0.333047 0)
(-1.30641 0.198678 0)
(-1.49662 0.111617 0)
(-1.66346 -0.358476 0)
(-1.69506 -0.534946 0)
(-1.6352 -0.475388 0)
(-1.468 -0.367242 0)
(-1.43757 -0.254921 0)
(-1.50301 -0.040234 0)
(-1.40348 0.141408 0)
(-0.969149 -0.0641351 0)
(-0.245654 -0.548429 0)
(-0.516866 0.194915 0)
(-0.0879361 0.441964 0)
(-0.190282 0.442193 0)
(-0.307507 0.397931 0)
(-0.299183 0.345615 0)
(-0.353841 0.311197 0)
(-0.407723 0.192226 0)
(-0.406159 0.140901 0)
(-0.336608 0.0329542 0)
(-0.459674 0.304773 0)
(-0.605444 1.26029 0)
(-0.653684 0.57708 0)
(-0.591617 0.103517 0)
(-0.346049 0.220469 0)
(0.19254 -0.236694 0)
(0.864964 0.0822041 0)
(-0.903237 -0.315013 0)
(-1.12641 -0.520965 0)
(-1.14122 -0.126598 0)
(-1.27135 -0.027479 0)
(-1.10981 -0.265178 0)
(-0.505352 -0.776291 0)
(-0.230694 -0.609275 0)
(-0.856169 0.687548 0)
(-0.077269 0.788082 0)
(-0.562853 0.707 0)
(-0.790598 0.315554 0)
(-0.596872 0.26139 0)
(-0.525912 0.411908 0)
(-0.564438 0.248665 0)
(-0.877449 0.211149 0)
(-1.42413 0.379504 0)
(-1.43067 0.498089 0)
(-0.91283 1.18024 0)
(-0.439734 0.566954 0)
(-0.444066 0.163303 0)
(-0.0400676 -0.326589 0)
(0.140674 -1.13594 0)
(0.533977 0.0594997 0)
(0.780169 0.65852 0)
(-0.228557 0.024681 0)
(-0.727231 0.288691 0)
(-0.797572 -0.0358507 0)
(0.151184 -0.922274 0)
(-0.115902 -1.02996 0)
(-1.13618 0.376542 0)
(-0.793725 0.259779 0)
(-0.114613 1.23458 0)
(-1.26329 1.58611 0)
(-1.10544 0.0994666 0)
(-1.13813 0.237726 0)
(-1.09548 0.298662 0)
(-1.28351 0.790541 0)
(-2.05913 1.11801 0)
(-1.85256 0.115686 0)
(-1.5641 0.169106 0)
(-1.55557 0.500201 0)
(-1.59638 0.361977 0)
(-1.47222 -0.129531 0)
(-1.24665 -0.677211 0)
(-1.23984 -0.859296 0)
(-1.13711 -0.702226 0)
(-0.279099 0.0678717 0)
(0.275593 0.690934 0)
(-0.0972937 0.452147 0)
(0.117026 -0.546398 0)
(-0.0822112 -0.782772 0)
(-0.439153 -0.398921 0)
(-0.604927 0.493848 0)
(-0.167427 -0.452216 0)
(-0.55971 2.89659 0)
(-1.51817 1.65042 0)
(-1.33175 0.143521 0)
(-1.4952 0.368485 0)
(-1.88563 0.506002 0)
(-1.77646 0.699257 0)
(-1.35205 1.1775 0)
(-1.24791 -0.0280552 0)
(-0.859881 -0.622087 0)
(0.555663 -0.384038 0)
(1.32728 1.10196 0)
(0.856671 0.122908 0)
(-0.555715 -0.41455 0)
(-1.03597 -0.807456 0)
(-1.16006 -0.745082 0)
(-1.18518 -0.512401 0)
(-0.828935 0.3049 0)
(-0.49306 0.472264 0)
(-0.429516 -0.464537 0)
(-0.581419 -0.447689 0)
(-0.583389 -0.31642 0)
(-0.140533 0.186184 0)
(-0.305549 -0.503225 0)
(-0.43821 4.27167 0)
(-0.992042 2.353 0)
(-1.1599 0.248064 0)
(-1.28417 0.619899 0)
(-1.6279 0.714498 0)
(-1.88176 0.55037 0)
(-1.43887 0.569401 0)
(-0.911893 -0.236038 0)
(-0.448771 -1.05344 0)
(-0.315347 -0.998387 0)
(-0.0295759 -0.461304 0)
(0.556634 1.38199 0)
(-0.258379 0.307791 0)
(-0.567086 -0.452786 0)
(-0.623998 -0.47036 0)
(-1.03751 -0.397382 0)
(-1.17484 0.0978135 0)
(-0.787235 -0.0853957 0)
(-0.789526 -0.338796 0)
(-0.72085 -0.464631 0)
(-0.816279 -0.473137 0)
(-0.74616 -0.110285 0)
(-0.523874 -0.360062 0)
(-0.187003 4.82993 0)
(-0.393384 2.38589 0)
(-0.935907 0.337436 0)
(-1.01631 0.694154 0)
(-1.15552 1.66186 0)
(-1.721 0.57279 0)
(-1.1077 -0.362292 0)
(-0.837263 -0.970316 0)
(-0.735844 -1.12939 0)
(-0.6268 -1.05813 0)
(-0.709106 -0.507482 0)
(-0.923774 1.55799 0)
(-1.01782 0.577398 0)
(-0.370215 -0.942485 0)
(-0.144878 -0.439042 0)
(-0.789645 -0.0217752 0)
(-0.996724 -0.0552193 0)
(-0.792748 -0.0853472 0)
(-0.842557 -0.532056 0)
(-0.85888 -0.360251 0)
(-0.732119 -0.370801 0)
(-0.698122 -0.329967 0)
(-0.854647 -0.303109 0)
(-0.142645 5.07274 0)
(-0.291624 2.86603 0)
(-0.751958 0.500886 0)
(-0.895552 0.761097 0)
(-1.00371 2.15709 0)
(-1.04193 0.633608 0)
(-1.13996 -0.662597 0)
(-1.02173 -1.08011 0)
(-0.994757 -1.17727 0)
(-1.00591 -1.14701 0)
(-1.06142 0.0124209 0)
(-1.50324 1.71556 0)
(-0.822257 -0.424004 0)
(-0.575462 -1.10749 0)
(-0.590337 -0.69683 0)
(0.0615224 1.03086 0)
(-0.258596 -0.0123071 0)
(-0.48921 0.115293 0)
(-0.616505 -0.399231 0)
(-0.613265 -0.512449 0)
(-0.613248 -0.409266 0)
(-0.625052 -0.251383 0)
(-0.686535 -0.124938 0)
(-0.243861 5.60868 0)
(-0.57066 3.12161 0)
(-0.600924 0.736166 0)
(-0.824053 0.961826 0)
(-0.923716 1.67424 0)
(-0.853401 0.914499 0)
(-0.9093 -0.709538 0)
(-1.07705 -1.09298 0)
(-1.09616 -1.05807 0)
(-1.19386 -1.11013 0)
(-1.16384 0.180858 0)
(-0.648879 1.60002 0)
(-0.592594 -0.53379 0)
(-0.722836 -1.15675 0)
(-0.758597 -0.577216 0)
(-0.358527 0.260897 0)
(-0.292466 0.0706858 0)
(-0.381135 0.307329 0)
(-0.491246 -0.347567 0)
(-0.525283 -0.479728 0)
(-0.557374 -0.391169 0)
(-0.557358 -0.27056 0)
(-0.521764 -0.166184 0)
(-0.406653 6.72948 0)
(-0.746696 2.91302 0)
(-0.560479 0.974654 0)
(-0.837925 1.26242 0)
(-0.877015 1.53068 0)
(-0.691193 0.769136 0)
(-0.624513 -0.246837 0)
(-0.880348 -1.08229 0)
(-0.850779 -0.991335 0)
(-0.991717 -1.02348 0)
(-0.806207 -0.465934 0)
(0.277659 0.797392 0)
(0.641658 0.0614992 0)
(-0.386948 -0.828571 0)
(-0.716044 -0.67242 0)
(-0.625194 0.0038739 0)
(-0.759225 0.313465 0)
(-0.697934 0.20798 0)
(-0.509381 -0.423859 0)
(-0.492689 -0.45847 0)
(-0.507704 -0.379976 0)
(-0.506695 -0.288047 0)
(-0.47824 -0.218524 0)
(-0.715546 8.2676 0)
(-0.516811 2.49468 0)
(-0.608265 1.18604 0)
(-0.47992 1.70105 0)
(-0.893292 1.51212 0)
(-0.822163 0.455867 0)
(-0.830294 -0.140942 0)
(-0.595199 -1.19374 0)
(-0.556986 -1.10473 0)
(-0.286546 -0.808319 0)
(-0.487945 -0.719639 0)
(-0.303071 -0.606728 0)
(0.590745 -0.0107187 0)
(0.857866 0.390976 0)
(-0.491283 -0.482812 0)
(-0.310886 0.102253 0)
(-0.627333 0.465704 0)
(-0.521433 -0.0324041 0)
(-0.451109 -0.470824 0)
(-0.445376 -0.457829 0)
(-0.46551 -0.367763 0)
(-0.469898 -0.298627 0)
(-0.449296 -0.255195 0)
(-0.147595 9.66988 0)
(-0.438893 1.84153 0)
(-0.5641 1.0732 0)
(-0.323107 1.73851 0)
(-0.69491 2.15045 0)
(-1.02612 0.504199 0)
(-1.01871 -0.302691 0)
(-1.16353 -1.0984 0)
(-1.23112 -1.33879 0)
(-0.701176 -1.29594 0)
(-0.220562 -0.671702 0)
(-0.0262641 -0.706143 0)
(0.308571 -0.359487 0)
(0.315884 0.450964 0)
(-0.178826 0.360657 0)
(-0.336743 -0.193031 0)
(-0.420772 0.586357 0)
(-0.334156 -0.105152 0)
(-0.34104 -0.467289 0)
(-0.394052 -0.42504 0)
(-0.433273 -0.347452 0)
(-0.440163 -0.304789 0)
(-0.425729 -0.28129 0)
(1.28462 8.17778 0)
(-0.202029 1.90805 0)
(-0.364037 1.12449 0)
(-0.67608 1.84653 0)
(-0.888569 2.56711 0)
(-1.05554 0.753359 0)
(-1.91133 0.105163 0)
(-3.0372 -0.508459 0)
(-3.15043 -1.66654 0)
(-1.71127 -2.26128 0)
(-0.517918 -0.660769 0)
(-0.53499 -0.971258 0)
(-0.500809 -0.677175 0)
(-0.323694 0.549481 0)
(-0.319363 0.621055 0)
(-0.4033 -0.187845 0)
(-0.205776 0.745933 0)
(-0.203624 -0.116674 0)
(-0.278309 -0.393286 0)
(-0.375271 -0.358714 0)
(-0.41554 -0.324265 0)
(-0.421141 -0.308689 0)
(-0.411509 -0.298791 0)
(1.19748 4.4928 0)
(0.446867 3.11075 0)
(-0.239775 1.41491 0)
(-0.67981 2.12163 0)
(-0.570377 2.71067 0)
(-1.31412 1.72996 0)
(-3.18856 1.62388 0)
(-4.11376 -0.0311071 0)
(-3.45743 -2.84544 0)
(-1.94933 -4.22916 0)
(-0.77068 -1.1177 0)
(-0.837297 -0.911605 0)
(-0.831533 -0.619483 0)
(-0.964119 0.46692 0)
(-0.413586 0.451472 0)
(-0.496985 -0.0530168 0)
(-0.435438 0.666642 0)
(-0.294499 -0.186639 0)
(-0.333006 -0.296872 0)
(-0.394272 -0.303645 0)
(-0.414139 -0.309853 0)
(-0.4148 -0.312164 0)
(-0.406566 -0.311318 0)
(-0.103641 1.61233 0)
(2.39373 5.94155 0)
(-0.0841038 1.89653 0)
(-0.412506 2.46457 0)
(-0.31649 2.81708 0)
(-1.60939 3.76815 0)
(-3.38966 2.77025 0)
(-3.40142 -0.51069 0)
(-3.00722 -3.83369 0)
(-2.12579 -5.40359 0)
(-1.43366 -2.15251 0)
(-1.03364 -0.744419 0)
(-1.4404 -0.912373 0)
(-1.0253 0.128337 0)
(-0.691753 0.127703 0)
(-0.855281 0.191692 0)
(-0.548948 0.240251 0)
(-0.363483 -0.207826 0)
(-0.412647 -0.241066 0)
(-0.426548 -0.283223 0)
(-0.42716 -0.307549 0)
(-0.4207 -0.318409 0)
(-0.409173 -0.323626 0)
(-0.346945 1.54678 0)
(1.61826 6.30716 0)
(0.231051 2.73558 0)
(-0.143881 2.39395 0)
(-0.34047 3.39619 0)
(-1.04327 5.22803 0)
(-1.80336 3.52801 0)
(-1.91061 -0.133435 0)
(-1.98598 -3.96679 0)
(-2.32212 -6.4484 0)
(-1.05054 -2.22696 0)
(-1.03503 -0.60079 0)
(-1.30498 -0.632542 0)
(-1.25404 -0.252803 0)
(-0.945022 -0.0590698 0)
(-0.721779 -0.00381744 0)
(-0.500096 -0.0707421 0)
(-0.490727 -0.166997 0)
(-0.478629 -0.237763 0)
(-0.465518 -0.287711 0)
(-0.451196 -0.316692 0)
(-0.434687 -0.331518 0)
(-0.416705 -0.339584 0)
(-0.328579 1.80486 0)
(0.358318 5.27872 0)
(0.548378 3.52164 0)
(0.177698 2.47254 0)
(-0.126848 3.90175 0)
(0.37732 5.05045 0)
(0.472837 3.79495 0)
(0.678059 0.0499039 0)
(0.464898 -3.5595 0)
(-0.241636 -5.6103 0)
(-1.10129 -3.38931 0)
(-0.633752 -0.552366 0)
(-0.673291 -0.407748 0)
(-0.737572 -0.423859 0)
(-0.684832 -0.225053 0)
(-0.660326 -0.11015 0)
(-0.612828 -0.123023 0)
(-0.57441 -0.194117 0)
(-0.540552 -0.26145 0)
(-0.509085 -0.309777 0)
(-0.479258 -0.338832 0)
(-0.451385 -0.353643 0)
(-0.426026 -0.361022 0)
(-0.244734 2.24332 0)
(-0.356598 4.27663 0)
(1.10576 3.73209 0)
(0.766191 2.71108 0)
(0.859732 3.70884 0)
(1.40812 4.33987 0)
(2.30768 3.31 0)
(2.79153 0.242802 0)
(2.54912 -2.93654 0)
(1.78888 -4.44682 0)
(0.0721878 -3.18066 0)
(-0.0500609 -0.605802 0)
(-0.146289 -0.255993 0)
(-0.418624 -0.34157 0)
(-0.59174 -0.162089 0)
(-0.666718 -0.107453 0)
(-0.675775 -0.151679 0)
(-0.649503 -0.231038 0)
(-0.603541 -0.302132 0)
(-0.552321 -0.349729 0)
(-0.505294 -0.375031 0)
(-0.465688 -0.385131 0)
(-0.433268 -0.38818 0)
(-0.124353 2.54707 0)
(-0.0563638 3.53032 0)
(0.562854 3.23935 0)
(0.81286 2.7035 0)
(1.29733 3.25131 0)
(2.03718 3.54088 0)
(3.00428 2.39818 0)
(3.66533 0.0101931 0)
(3.87209 -2.49663 0)
(2.90006 -3.13074 0)
(1.07896 -1.64554 0)
(0.260744 -0.461926 0)
(0.130067 -0.126348 0)
(-0.265645 -0.0583559 0)
(-0.563747 0.0155585 0)
(-0.717004 -0.0337753 0)
(-0.772303 -0.147782 0)
(-0.747048 -0.274601 0)
(-0.6729 -0.366264 0)
(-0.590961 -0.412042 0)
(-0.522944 -0.426555 0)
(-0.47194 -0.425472 0)
(-0.434376 -0.419764 0)
(0.0338192 2.65962 0)
(0.0965986 3.18096 0)
(0.419899 2.78767 0)
(0.806291 2.43679 0)
(1.10156 2.59317 0)
(2.01355 2.49739 0)
(3.24615 1.28001 0)
(4.38841 -0.845484 0)
(4.47487 -2.06165 0)
(2.86999 -1.2626 0)
(1.69407 -0.153844 0)
(0.634794 0.0450816 0)
(0.271477 0.080942 0)
(-0.274352 0.377946 0)
(-0.653668 0.275172 0)
(-0.863786 0.0953099 0)
(-0.950349 -0.128957 0)
(-0.897069 -0.35009 0)
(-0.748223 -0.476622 0)
(-0.61445 -0.506645 0)
(-0.521688 -0.493907 0)
(-0.463452 -0.471742 0)
(-0.425927 -0.452347 0)
(0.155626 2.30493 0)
(-0.0934776 2.90494 0)
(0.211841 2.44204 0)
(0.220619 2.3901 0)
(0.426578 2.03562 0)
(1.25503 1.33484 0)
(2.43003 0.00618236 0)
(2.94812 -1.26576 0)
(1.96861 -0.899858 0)
(1.59212 -0.631565 0)
(1.30064 0.301169 0)
(0.663151 0.785442 0)
(0.305788 0.694818 0)
(-0.54173 0.899071 0)
(-0.913441 0.568487 0)
(-1.17442 0.275823 0)
(-1.31203 -0.0989049 0)
(-1.162 -0.527757 0)
(-0.820634 -0.701449 0)
(-0.592288 -0.642548 0)
(-0.483562 -0.570503 0)
(-0.432784 -0.515219 0)
(-0.405828 -0.479503 0)
(0.168428 1.56397 0)
(0.109215 2.77273 0)
(-0.237781 2.76188 0)
(-0.405346 2.41709 0)
(-0.638475 1.79619 0)
(0.395982 0.256957 0)
(0.60425 -0.466457 0)
(0.394362 -0.479603 0)
(0.35439 -0.7122 0)
(-0.478804 -0.0266715 0)
(-0.58771 0.757532 0)
(-0.312362 0.892314 0)
(-1.15594 1.66833 0)
(-1.15032 1.1794 0)
(-1.3119 0.830246 0)
(-1.36444 0.423637 0)
(-1.2136 -0.255028 0)
(-0.921507 -0.936926 0)
(-0.683051 -1.04104 0)
(-0.42968 -0.813234 0)
(-0.383791 -0.629597 0)
(-0.376753 -0.537885 0)
(-0.375742 -0.491813 0)
(0.0630588 0.694648 0)
(0.466324 3.8799 0)
(-0.460897 2.93744 0)
(-0.770614 2.87843 0)
(-0.918508 1.257 0)
(-0.315414 -0.125262 0)
(-0.769714 -0.170874 0)
(-1.02309 -0.134513 0)
(-1.41954 -0.0358049 0)
(-1.24606 -0.0458231 0)
(-1.50277 0.476259 0)
(-1.99765 1.51402 0)
(-1.75678 1.49722 0)
(-1.46101 1.13697 0)
(-0.988686 0.647726 0)
(-0.254365 0.0538136 0)
(0.357014 -0.452781 0)
(0.36374 -0.813249 0)
(-0.0368237 -1.13874 0)
(-0.112614 -0.851831 0)
(-0.239347 -0.588541 0)
(-0.314233 -0.514041 0)
(-0.346326 -0.481701 0)
(-0.195603 0.447167 0)
(0.740232 4.16879 0)
(0.023083 3.54185 0)
(-0.677416 3.30836 0)
(-0.479939 0.694509 0)
(-0.791507 0.239018 0)
(-0.970076 -0.209442 0)
(-1.28169 0.121996 0)
(-1.53505 0.0650554 0)
(-2.10532 0.460243 0)
(-2.50087 1.05274 0)
(-2.21073 1.1964 0)
(-1.61242 0.986314 0)
(-0.830751 0.46909 0)
(0.0298094 -0.239831 0)
(0.451755 -0.624844 0)
(0.643653 -0.641387 0)
(0.645344 -0.585972 0)
(0.438021 -0.831156 0)
(0.0941434 -0.70584 0)
(-0.192053 -0.418789 0)
(-0.296918 -0.449202 0)
(-0.335991 -0.45688 0)
(-0.01383 0.38773 0)
(0.720263 3.54097 0)
(1.13018 4.56079 0)
(0.24698 3.7716 0)
(-0.732139 0.915225 0)
(-0.42671 0.413374 0)
(-0.923753 0.0467276 0)
(-1.2527 0.294061 0)
(-1.63303 0.508076 0)
(-2.09732 0.850945 0)
(-1.92485 0.811172 0)
(-1.41704 0.622248 0)
(-0.68739 0.18983 0)
(-0.177069 -0.241844 0)
(-0.0788385 -0.480656 0)
(0.00700091 -0.778188 0)
(0.192237 -0.807575 0)
(0.350543 -0.538785 0)
(0.360066 -0.636274 0)
(-0.301619 -0.122125 0)
(-0.325979 -0.307098 0)
(-0.343837 -0.404948 0)
(-0.350845 -0.441938 0)
(0.217606 0.299363 0)
(0.491851 2.53899 0)
(1.40229 4.17981 0)
(1.67635 4.56463 0)
(0.812386 2.22138 0)
(0.385739 0.323991 0)
(-0.00661656 0.717112 0)
(-0.881508 0.8225 0)
(-1.4015 0.980383 0)
(-1.23738 0.707676 0)
(-0.885765 0.349043 0)
(-0.685098 0.106272 0)
(-0.780234 0.0387835 0)
(-0.719294 -0.252771 0)
(-0.601187 -0.593987 0)
(-0.571524 -0.883661 0)
(-0.612162 -0.966675 0)
(-0.44958 -0.619018 0)
(-0.879258 -0.0908744 0)
(-0.605351 -0.210249 0)
(-0.464724 -0.345257 0)
(-0.406732 -0.419493 0)
(-0.375676 -0.453895 0)
(0.140672 -1.02459 0)
(1.00121 2.07233 0)
(1.17256 3.47666 0)
(1.79374 4.28603 0)
(1.97448 3.04406 0)
(1.0188 1.05854 0)
(0.491685 1.37879 0)
(-0.736351 1.5518 0)
(-0.983556 0.948409 0)
(-0.898257 0.482901 0)
(-0.956015 0.371398 0)
(-0.973816 0.146026 0)
(-0.93776 -0.0747358 0)
(-0.899269 -0.322159 0)
(-0.879782 -0.569634 0)
(-0.941524 -0.759736 0)
(-1.08361 -0.788057 0)
(-1.08061 -0.6269 0)
(-0.859905 -0.463095 0)
(-0.66319 -0.419605 0)
(-0.528037 -0.446947 0)
(-0.445453 -0.474747 0)
(-0.392895 -0.489701 0)
(-0.0607235 -1.17816 0)
(0.508314 1.8783 0)
(0.642747 3.12159 0)
(1.1246 3.92633 0)
(1.19975 3.02866 0)
(0.81406 1.85936 0)
(0.181319 2.22827 0)
(-0.905783 2.24426 0)
(-1.09529 0.979715 0)
(-1.11369 0.50558 0)
(-1.14036 0.413185 0)
(-1.22863 0.162421 0)
(-1.22751 -0.117976 0)
(-1.15059 -0.392798 0)
(-1.05606 -0.610167 0)
(-0.988648 -0.747596 0)
(-0.961035 -0.774902 0)
(-0.907689 -0.699324 0)
(-0.7838 -0.616189 0)
(-0.648717 -0.567497 0)
(-0.53664 -0.550125 0)
(-0.454071 -0.543889 0)
(-0.39491 -0.537925 0)
(0.268583 -0.910408 0)
(-0.732019 2.00583 0)
(-0.949978 3.02836 0)
(-0.246691 3.43781 0)
(0.414786 2.806 0)
(0.139973 2.38698 0)
(-1.2584 3.4595 0)
(-1.19611 2.38705 0)
(-1.25043 1.06652 0)
(-1.32478 0.545634 0)
(-1.48062 0.536243 0)
(-1.595 0.212897 0)
(-1.57031 -0.184594 0)
(-1.41427 -0.517805 0)
(-1.23005 -0.734466 0)
(-1.0725 -0.840582 0)
(-0.948801 -0.854581 0)
(-0.837292 -0.805589 0)
(-0.721567 -0.738701 0)
(-0.610087 -0.682421 0)
(-0.514501 -0.642238 0)
(-0.438806 -0.612941 0)
(-0.381079 -0.589211 0)
(-0.111071 -0.144056 0)
(-1.37609 2.72101 0)
(-0.962067 2.43155 0)
(-0.477215 2.72892 0)
(-0.421299 2.84277 0)
(-1.43087 3.79531 0)
(-1.51531 3.378 0)
(-1.32663 2.28922 0)
(-1.3033 1.16219 0)
(-1.4993 0.739861 0)
(-1.86342 0.771573 0)
(-2.17402 0.321033 0)
(-2.10765 -0.343814 0)
(-1.76595 -0.796576 0)
(-1.38547 -0.975501 0)
(-1.11148 -1.02455 0)
(-0.920132 -0.997091 0)
(-0.7746 -0.929116 0)
(-0.655606 -0.851461 0)
(-0.555167 -0.781011 0)
(-0.471987 -0.723119 0)
(-0.405281 -0.67637 0)
(-0.352943 -0.638064 0)
(-0.11174 1.34876 0)
(-1.10774 2.70655 0)
(-0.980177 2.06146 0)
(-1.20079 2.67356 0)
(-1.39586 3.50892 0)
(-1.53564 3.97698 0)
(-1.19298 3.14308 0)
(-1.06956 2.1798 0)
(-1.11825 1.29351 0)
(-1.4578 1.14553 0)
(-2.05374 1.28245 0)
(-2.31913 0.435557 0)
(-1.98567 -0.656676 0)
(-1.79971 -1.21625 0)
(-1.45866 -1.40351 0)
(-1.07885 -1.29611 0)
(-0.842906 -1.17952 0)
(-0.685076 -1.06381 0)
(-0.570818 -0.957734 0)
(-0.482685 -0.867088 0)
(-0.412845 -0.792407 0)
(-0.357174 -0.731447 0)
(-0.312617 -0.681565 0)
(0.0765713 1.88044 0)
(-0.661238 2.96658 0)
(-1.13163 2.55042 0)
(-1.5815 2.82733 0)
(-1.47259 3.41466 0)
(-0.987165 3.51797 0)
(-0.611845 2.95666 0)
(-0.491329 2.16655 0)
(-0.619868 1.57654 0)
(-0.929695 1.58528 0)
(-1.22678 1.66275 0)
(-1.30164 0.20061 0)
(-1.2432 -0.850674 0)
(-1.06459 -1.20556 0)
(-1.21577 -1.69438 0)
(-0.922367 -1.61622 0)
(-0.686109 -1.36395 0)
(-0.551887 -1.18951 0)
(-0.459685 -1.04892 0)
(-0.391922 -0.937007 0)
(-0.33957 -0.847575 0)
(-0.297623 -0.775839 0)
(-0.262951 -0.717843 0)
(-0.131542 1.79459 0)
(-0.327735 3.43635 0)
(-0.913906 3.13912 0)
(-1.26375 2.97643 0)
(-1.28211 3.06031 0)
(-0.945952 3.07202 0)
(-0.60524 2.66803 0)
(-0.348793 2.06754 0)
(-0.223158 1.69152 0)
(-0.108817 1.6835 0)
(0.0895909 1.77327 0)
(-0.18203 0.561461 0)
(-0.766538 -0.773861 0)
(-0.75806 -1.5041 0)
(-0.638552 -1.64432 0)
(-0.581539 -1.85288 0)
(-0.450742 -1.50751 0)
(-0.376405 -1.27881 0)
(-0.324479 -1.11149 0)
(-0.285996 -0.984229 0)
(-0.255522 -0.885148 0)
(-0.230019 -0.807116 0)
(-0.207657 -0.744949 0)
(0.0845683 1.45151 0)
(0.447302 3.65272 0)
(0.694049 3.7517 0)
(0.298593 3.41861 0)
(-0.211388 3.08153 0)
(-0.516584 2.84819 0)
(-0.430528 2.30753 0)
(-0.0854496 1.7896 0)
(0.195808 1.47765 0)
(0.431651 1.32708 0)
(0.86333 1.40268 0)
(1.16715 0.980932 0)
(0.783276 -0.100539 0)
(0.177534 -1.51134 0)
(-0.0184639 -1.4708 0)
(-0.142801 -1.88046 0)
(-0.172898 -1.55843 0)
(-0.176468 -1.30812 0)
(-0.17444 -1.13487 0)
(-0.169837 -1.00376 0)
(-0.164317 -0.902137 0)
(-0.158706 -0.822386 0)
(-0.151522 -0.760567 0)
(-0.0595216 0.895509 0)
(0.777828 3.23349 0)
(1.3871 3.24192 0)
(2.08707 3.37659 0)
(2.65977 3.68873 0)
(2.16173 3.54503 0)
(1.2909 2.48928 0)
(0.956626 1.48202 0)
(1.07414 1.27182 0)
(1.11763 1.15756 0)
(1.1742 1.00515 0)
(1.38755 0.850009 0)
(1.33237 0.251385 0)
(0.861889 -0.898362 0)
(0.415544 -1.24491 0)
(0.250433 -1.75602 0)
(0.0974315 -1.50283 0)
(0.0256006 -1.27558 0)
(-0.0177324 -1.11786 0)
(-0.0481883 -0.993163 0)
(-0.0728702 -0.894352 0)
(-0.0920191 -0.817971 0)
(-0.100816 -0.763279 0)
(-0.0745612 0.875562 0)
(0.639427 2.32377 0)
(1.65258 2.47404 0)
(2.31432 2.73897 0)
(2.82382 2.8693 0)
(3.62484 3.76089 0)
(3.38164 3.4563 0)
(2.50876 1.96785 0)
(1.97148 1.36291 0)
(1.73516 1.29545 0)
(1.52007 1.03782 0)
(1.33511 0.885342 0)
(1.13354 0.395985 0)
(0.953719 -0.446987 0)
(0.702834 -1.02735 0)
(0.552116 -1.55928 0)
(0.325569 -1.36418 0)
(0.212252 -1.19822 0)
(0.130046 -1.06271 0)
(0.0581197 -0.946266 0)
(-0.00237455 -0.856013 0)
(-0.043125 -0.79431 0)
(-0.0616629 -0.755442 0)
(0.00825794 0.86917 0)
(0.435691 1.2695 0)
(1.28197 1.50901 0)
(2.14922 2.15059 0)
(2.66243 2.39527 0)
(2.98383 3.21627 0)
(3.32394 3.79889 0)
(2.89751 2.71105 0)
(2.31125 1.86488 0)
(1.89509 1.59264 0)
(1.59302 1.2844 0)
(1.32624 1.18354 0)
(1.06108 0.581239 0)
(0.915404 -0.214106 0)
(0.895465 -0.969792 0)
(0.718991 -1.31035 0)
(0.48847 -1.19551 0)
(0.346268 -1.08611 0)
(0.211478 -0.960835 0)
(0.0985089 -0.859998 0)
(0.0215945 -0.796299 0)
(-0.0181011 -0.764324 0)
(-0.0358103 -0.743481 0)
(0.099285 0.367576 0)
(0.379508 0.839884 0)
(0.638218 0.872054 0)
(1.11003 1.49864 0)
(1.50481 2.09917 0)
(1.73407 2.88561 0)
(2.09065 3.62087 0)
(2.22446 3.02972 0)
(2.02395 2.29043 0)
(1.66593 1.94621 0)
(1.35731 1.56252 0)
(1.12723 1.40625 0)
(1.03319 0.766795 0)
(0.990534 -0.20312 0)
(0.996181 -0.900683 0)
(0.766314 -1.0576 0)
(0.549653 -1.01508 0)
(0.334141 -0.912465 0)
(0.16293 -0.818241 0)
(0.0621935 -0.768103 0)
(0.0142515 -0.749653 0)
(-0.00731715 -0.743033 0)
(-0.0198198 -0.732814 0)
(0.219437 -0.152443 0)
(0.491447 0.827469 0)
(0.333778 0.674578 0)
(0.577264 1.20983 0)
(0.78241 1.93207 0)
(0.830169 2.67031 0)
(1.17645 3.17543 0)
(1.59675 2.88045 0)
(1.60879 2.51766 0)
(1.25074 2.31184 0)
(0.903112 1.83869 0)
(0.82763 1.47279 0)
(0.925666 0.697579 0)
(1.05936 -0.242699 0)
(0.989826 -0.739486 0)
(0.709815 -0.802861 0)
(0.391582 -0.748506 0)