# vtk DataFile Version 2.0
gauge_2
ASCII
DATASET POLYDATA
POINTS 85 double
0.2 0.0329993 0.005
0.2 0.0359992 0.005
0.2 0.0389992 0.005
0.2 0.0419991 0.005
0.2 0.044999 0.005
0.2 0.047999 0.005
0.2 0.0543799 0.005
0.2 0.0607609 0.005
0.2 0.0671419 0.005
0.2 0.0735228 0.005
0.2 0.0799038 0.005
0.2 0.0862847 0.005
0.2 0.0926657 0.005
0.2 0.0990467 0.005
0.2 0.105428 0.005
0.2 0.111809 0.005
0.2 0.11819 0.005
0.2 0.124571 0.005
0.2 0.130952 0.005
0.2 0.137332 0.005
0.2 0.143713 0.005
0.2 0.150094 0.005
0.2 0.156475 0.005
0.2 0.162856 0.005
0.2 0.169237 0.005
0.2 0.175618 0.005
0.2 0.181999 0.005
0.2 0.18838 0.005
0.2 0.194761 0.005
0.2 0.201142 0.005
0.2 0.207523 0.005
0.2 0.213904 0.005
0.2 0.220285 0.005
0.2 0.226666 0.005
0.2 0.233047 0.005
0.2 0.239428 0.005
0.2 0.245809 0.005
0.2 0.25219 0.005
0.2 0.258571 0.005
0.2 0.264952 0.005
0.2 0.271333 0.005
0.2 0.277714 0.005
0.2 0.284095 0.005
0.2 0.290476 0.005
0.2 0.296857 0.005
0.2 0.303238 0.005
0.2 0.309619 0.005
0.2 0.315999 0.005
0.2 0.32238 0.005
0.2 0.328761 0.005
0.2 0.335142 0.005
0.2 0.341523 0.005
0.2 0.347904 0.005
0.2 0.354285 0.005
0.2 0.360666 0.005
0.2 0.367047 0.005
0.2 0.373428 0.005
0.2 0.379809 0.005
0.2 0.38619 0.005
0.2 0.392571 0.005
0.2 0.398952 0.005
0.2 0.405333 0.005
0.2 0.411714 0.005
0.2 0.418095 0.005
0.2 0.424476 0.005
0.2 0.430857 0.005
0.2 0.437238 0.005
0.2 0.443619 0.005
0.2 0.45 0.005
0.2 0.456381 0.005
0.2 0.462762 0.005
0.2 0.469143 0.005
0.2 0.475524 0.005
0.2 0.481905 0.005
0.2 0.488286 0.005
0.2 0.494666 0.005
0.2 0.501047 0.005
0.2 0.507428 0.005
0.2 0.513809 0.005
0.2 0.52019 0.005
0.2 0.526571 0.005
0.2 0.532952 0.005
0.2 0.539333 0.005
0.2 0.545714 0.005
0.2 0.552095 0.005
POINT_DATA 85
 FIELD attributes 1
alpha.water 1 85 float
1 1 1 1 1 1 1 1 1 0.986576 0.689707 0.203134 1.81265e-07 6.04006e-08 1.39753e-07 6.32711e-07 8.23812e-07 3.07608e-07 6.63012e-09 2.52303e-10 1.02131e-10 4.11363e-11 7.03852e-11 1.9732e-10 2.71114e-10 2.25173e-10 1.81166e-10 3.26046e-06 7.71745e-05 0.000167587 0.00018992 0.000190461 0.000140604 4.66745e-05 3.15796e-07 7.72968e-08 5.68868e-08 4.90034e-06 0.000350385 0.00104255 0.000926022 0.00106161 0.00457453 0.0076992 0.00778145 0.00758202 0.0077688 0.00807288 0.00683886 0.00288513 0.000113521 6.12391e-06 9.62588e-07 1.38802e-07 1.83995e-08 2.28892e-09 2.72515e-10 2.59902e-11 2.43725e-12 1.70167e-13 1.26221e-14 5.7387e-16 6.91055e-17 2.53973e-18 2.96118e-19 8.04206e-21 7.02384e-22 1.86654e-23 1.07172e-24 3.34224e-26 2.04239e-27 5.88506e-29 3.30881e-30 7.75048e-32 3.3383e-33 8.08338e-35 3.23523e-36 7.67524e-38 3.34136e-39 7.04287e-41 3.23567e-42 1.25038e-44 -7.39141e-44 -5.92282e-44 -1.75027e-44
