# vtk DataFile Version 2.0
gauge_1
ASCII
DATASET POLYDATA
POINTS 9 double
0.02 0.201142 0.005
0.02 0.207523 0.005
0.02 0.213904 0.005
0.02 0.220285 0.005
0.02 0.226666 0.005
0.02 0.233047 0.005
0.02 0.239428 0.005
0.02 0.245809 0.005
0.02 0.25219 0.005
POINT_DATA 9
 FIELD attributes 1
alpha.water 1 9 float
-9.1675e-23 4.00458e-23 2.44264e-23 8.77271e-24 2.62328e-24 7.04693e-25 1.75635e-25 4.07975e-26 8.73265e-27
