# vtk DataFile Version 2.0
gauge_2
ASCII
DATASET POLYDATA
POINTS 85 double
0.2 0.0329993 0.005
0.2 0.0359992 0.005
0.2 0.0389992 0.005
0.2 0.0419991 0.005
0.2 0.044999 0.005
0.2 0.047999 0.005
0.2 0.0543799 0.005
0.2 0.0607609 0.005
0.2 0.0671419 0.005
0.2 0.0735228 0.005
0.2 0.0799038 0.005
0.2 0.0862847 0.005
0.2 0.0926657 0.005
0.2 0.0990467 0.005
0.2 0.105428 0.005
0.2 0.111809 0.005
0.2 0.11819 0.005
0.2 0.124571 0.005
0.2 0.130952 0.005
0.2 0.137332 0.005
0.2 0.143713 0.005
0.2 0.150094 0.005
0.2 0.156475 0.005
0.2 0.162856 0.005
0.2 0.169237 0.005
0.2 0.175618 0.005
0.2 0.181999 0.005
0.2 0.18838 0.005
0.2 0.194761 0.005
0.2 0.201142 0.005
0.2 0.207523 0.005
0.2 0.213904 0.005
0.2 0.220285 0.005
0.2 0.226666 0.005
0.2 0.233047 0.005
0.2 0.239428 0.005
0.2 0.245809 0.005
0.2 0.25219 0.005
0.2 0.258571 0.005
0.2 0.264952 0.005
0.2 0.271333 0.005
0.2 0.277714 0.005
0.2 0.284095 0.005
0.2 0.290476 0.005
0.2 0.296857 0.005
0.2 0.303238 0.005
0.2 0.309619 0.005
0.2 0.315999 0.005
0.2 0.32238 0.005
0.2 0.328761 0.005
0.2 0.335142 0.005
0.2 0.341523 0.005
0.2 0.347904 0.005
0.2 0.354285 0.005
0.2 0.360666 0.005
0.2 0.367047 0.005
0.2 0.373428 0.005
0.2 0.379809 0.005
0.2 0.38619 0.005
0.2 0.392571 0.005
0.2 0.398952 0.005
0.2 0.405333 0.005
0.2 0.411714 0.005
0.2 0.418095 0.005
0.2 0.424476 0.005
0.2 0.430857 0.005
0.2 0.437238 0.005
0.2 0.443619 0.005
0.2 0.45 0.005
0.2 0.456381 0.005
0.2 0.462762 0.005
0.2 0.469143 0.005
0.2 0.475524 0.005
0.2 0.481905 0.005
0.2 0.488286 0.005
0.2 0.494666 0.005
0.2 0.501047 0.005
0.2 0.507428 0.005
0.2 0.513809 0.005
0.2 0.52019 0.005
0.2 0.526571 0.005
0.2 0.532952 0.005
0.2 0.539333 0.005
0.2 0.545714 0.005
0.2 0.552095 0.005
POINT_DATA 85
 FIELD attributes 1
alpha.water 1 85 float
1 1 1 1 1 1 1 1 1 0.98627 0.692332 0.206065 8.10979e-08 5.62221e-08 7.41969e-08 4.21092e-07 4.48774e-07 7.40063e-08 1.93158e-10 3.22294e-11 1.80817e-11 1.78044e-11 5.91819e-11 1.76279e-10 2.51891e-10 2.43954e-10 1.61872e-09 4.03252e-07 1.59642e-05 7.60678e-05 0.00013773 0.000144864 9.10675e-05 2.37163e-05 3.23343e-07 5.96801e-08 6.3391e-08 5.44337e-07 1.54955e-06 1.66165e-06 8.00857e-05 0.00242835 0.00626416 0.00802647 0.00827019 0.00832582 0.00822577 0.00572666 0.00170242 4.01847e-05 6.21023e-06 1.01549e-06 1.50494e-07 2.04327e-08 2.56979e-09 3.07274e-10 3.35538e-11 2.63953e-12 1.62623e-13 9.61236e-15 7.94095e-16 5.21209e-17 5.04383e-18 1.93785e-19 1.41182e-20 5.29323e-22 2.45488e-23 1.04962e-24 4.01013e-26 1.77494e-27 6.89442e-29 2.81068e-30 9.77293e-32 3.29617e-33 9.25711e-35 3.15926e-36 8.15887e-38 2.68808e-39 7.61289e-41 1.67093e-42 -4.0991e-43 -5.10648e-43 -1.44202e-43 -2.96911e-44 -5.57167e-45
