/*--------------------------------*- C++ -*----------------------------------*\
| =========                 |                                                 |
| \\      /  F ield         | OpenFOAM: The Open Source CFD Toolbox           |
|  \\    /   O peration     | Version:  v1912                                 |
|   \\  /    A nd           | Website:  www.openfoam.com                      |
|    \\/     M anipulation  |                                                 |
\*---------------------------------------------------------------------------*/
FoamFile
{
    version     2.0;
    format      ascii;
    class       volScalarField;
    location    "1";
    object      alpha.water;
}
// * * * * * * * * * * * * * * * * * * * * * * * * * * * * * * * * * * * * * //

dimensions      [0 0 0 0 0 0 0];


internalField   nonuniform List<scalar> 
9072
(
1
1
1
1
1
1
1
1
1
0.999829
0.991863
0.991016
0.97229
0.995368
1
0.999996
0.999934
0.99802
0.999076
0.999721
0.999999
0.999987
0.999993
1
1
1
1
1
1
1
1
1
1
0.976864
0.963348
0.963816
0.999872
0.999998
0.999999
0.993829
0.999258
0.986942
1
1
0.999909
0.999965
1
1
1
1
1
1
1
1
1
0.999998
1
0.999997
0.999277
0.994754
0.999997
0.999997
0.979167
0.998263
0.940736
1
1
1
0.999999
1
1
1
1
1
1
1
1
1
1
1
1
1
1
0.999982
0.999997
0.98123
0.995689
0.941994
0.999999
0.999995
1
1
1
1
1
1
1
1
1
1
1
0.999998
1
1
1
1
1
1
0.939233
0.875067
0.999978
0.999906
0.964497
0.999692
1
1
0.999996
0.995562
1
1
1
1
1
0.999978
0.984366
0.817609
0.917274
1
1
1
1
0.974097
0.874354
0.999943
0.957093
0.96508
0.950385
0.999998
1
0.999967
0.995761
0.998517
1
1
1
0.999987
0.863063
0.331887
0.322024
0.322024
0.327705
0.349514
0.998767
0.999999
0.999979
0.968917
0.994082
0.971988
0.996938
0.980155
0.999998
1
1
0.995235
0.994318
1
1
0.999996
0.892589
0.34995
0.778656
0.836631
0.369323
0.686263
0.978091
0.989371
1
0.999999
0.999972
0.996083
0.990227
0.996478
0.999713
0.999998
0.993053
0.990482
0.965978
0.843925
0.993524
0.993524
0.993413
0.794305
0.639967
0.683155
0.758322
0.864819
0.86539
0.377833
0.917842
0.917842
0.86631
0.913886
0.920437
0.993043
0.97728
0.565655
0.564686
0.962097
0.987403
0.390988
0.74529
0.961138
0.959882
0.852845
0.587717
0.736301
0.701444
0.329637
0.869772
0.896444
0.435555
0.559721
0.993036
0.991899
0.606174
0.768144
0.945838
0.45205
0.379919
0.944178
0.922353
0.950039
0.337149
0.782387
0.0522554
0.807589
0.317989
0.652781
0.707218
0.398207
0.883741
0.992407
0.76415
0.847638
0.869717
0.651123
0.378752
0.941278
0.944446
0.927362
0.483352
0.0752967
0.0657867
0.0520804
0.753338
0.769279
0.938852
0.62093
0.397409
0.874357
0.990791
0.541698
0.642871
0.954174
0.377508
0.377507
0.944431
0.944442
0.944461
0.518859
0.0773207
0.0781835
0.0520731
0.0520724
0.950755
0.955107
0.954938
0.749235
0.893253
0.990807
0.367365
0.422152
0.987822
0.8971
0.56818
0.757611
0.944537
0.944347
0.681763
0.0827405
0.379504
0.0520298
0.05203
0.184174
0.955201
0.4864
0.502694
0.895461
0.942902
0.80232
0.263743
0.987884
0.982407
0.346706
0.926099
0.816521
0.635276
0.0204876
0.102959
0.329182
0.0594228
0.0520397
0.0521646
0.913026
0.590554
0.74252
0.896086
0.966118
0.991676
0.267564
0.987884
0.87252
0.119101
0.907058
0.0217194
0.0372952
0.00545866
0.183099
0.437432
0.394353
0.0520781
0.0521124
0.837939
0.921996
0.889972
0.893303
1
1
0.997591
0.988635
1
0.999999
0.979615
0.366836
0.81079
0.839229
0.83478
0.333964
0.334582
0.385255
0.99998
1
1
0.999999
0.999797
0.563391
0.310314
0.937317
0.912929
1
1
0.99971
0.99028
1
0.999464
0.480655
0.797548
0.839161
0.83797
0.58223
0.333964
0.439742
0.377665
0.935002
0.934349
0.918272
0.999978
0.999911
0.648253
0.0049945
0.0792671
0.191637
1
1
1
0.995572
0.999994
0.911425
0.485665
0.73956
0.0881541
0.0084968
0.00665532
0.0270179
0.13289
0.192975
0.991098
0.991735
0.995098
0.999971
0.999831
0.400492
0.00523872
0.00674065
0.0261465
1
1
0.999906
0.999999
0.999998
0.995357
0.850381
0.0334384
0.00630246
0.0141897
0.00654029
0.00654029
0.0200338
0.0604041
0.0111558
0.0114686
0.652788
0.999856
0.904131
0.000898752
0.000872435
0.00851661
0.0132678
0.998909
1
1
1
0.999557
0.921534
0.820204
0.0522006
0.00625277
0.00626258
0.0488728
0.0066649
0.0278961
0.0789965
0.0110758
0.0351222
0.00461447
0.129685
0.008506
0.0016379
0.000613584
0.0202685
0.007312
0.956705
0.840263
1
0.996138
0.998704
0.989971
0.474143
0.114202
0.130445
0.126065
0.0253398
0.053805
0.0540025
0.0780156
0.00977778
6.45257e-05
8.75833e-05
0.000118936
0.000825625
0.00244181
0.000344121
0.000194042
6.35332e-05
0.90948
0.857556
0.907823
0.996477
0.992489
0.927077
0.781234
0.119024
0.0993786
0.00261752
0.0201081
0.0421581
0.00717571
0.0425795
0.0109499
6.20443e-05
6.25377e-05
0.000418956
0.000726579
0.00209825
0.000343964
0.00150623
6.34745e-05
0.945704
0.948038
0.912067
0.515147
0.960106
0.974818
0.974818
0.515959
0.00410711
0.014167
0.00152005
0.00137793
0.0125655
0.00354227
0.0108262
0.000217623
6.25377e-05
0.00379244
0.00253945
0.000562164
0.00178637
0.000421869
0.000436851
0.944289
0.128895
0.018503
0.190568
0.0711709
0.537087
0.453038
0.00401285
0.00183208
0.00144676
0.01567
0.00141127
0.00704395
0.0160184
0.00379811
0.00278988
0.00525159
0.00144633
3.21834e-06
4.47577e-08
8.51546e-05
0.00187433
7.28307e-05
0.886942
0.740484
0.0118962
0.00960423
0.00946542
0.015304
0.00919323
0.000147773
0.00013612
0.0197938
0.0200049
0.0167192
0.0156295
0.0207051
0.00189755
0.00156018
0.00686366
1.56384e-06
8.70911e-09
8.70911e-09
0.00148198
0.00203727
0.00026907
0.87198
0.138438
0.393495
0.0102261
0.00949352
0.00947418
0.0277807
0.0279805
0.000148404
0.0181488
0.000263008
0.000348106
0.000424581
0.0192751
0.00903881
0.00277386
0.00153267
1.29e-07
1.11005e-08
6.94123e-07
0.000516169
0.00203794
0.00153527
0.855815
0.0611158
0.035894
0.0247324
0.00026376
0.000262124
0.000362597
0.0279805
0.0103125
0.000181345
0.000204543
0.00211305
0.00706145
0.00535171
0.000968971
0.00381244
1.02874e-05
1.37699e-08
1.16515e-07
9.55387e-09
3.73574e-09
5.23293e-06
3.04798e-05
0.585845
0.0213287
0.0167696
0.00212622
0.000419587
0.00026754
0.00677265
0.00172336
0.000297172
0.000181193
0.000187855
0.000217798
0.00211697
0.0011923
0.00096813
7.1013e-05
3.43459e-06
1.16318e-09
7.55646e-10
3.17222e-09
7.78494e-10
2.4463e-10
2.78737e-10
0.477541
0.0102774
0.000210189
0.00412227
0.010501
0.00065726
0.000779198
0.00200147
0.000761166
0.00116599
0.000948499
0.000598524
0.00212658
0.00212437
0.000293199
1.62225e-05
1.40092e-05
4.64917e-10
6.5628e-10
8.6514e-11
1.26082e-11
1.88202e-12
1.46636e-12
0.481565
0.0029523
0.000186617
0.000305071
0.00274848
0.00434492
0.00444648
0.000547953
0.00245172
0.00474413
0.00767287
0.0077769
0.000311568
0.000132287
5.5489e-07
7.56872e-06
4.73414e-10
6.06433e-10
1.08571e-10
2.71302e-11
2.43817e-12
6.02489e-13
2.27386e-13
0.485264
0.0539436
0.00018773
0.000395392
0.00391923
0.00018165
0.000165199
0.000166012
0.000166275
0.000174689
0.000196615
0.00694864
0.00765396
6.4055e-05
7.07942e-08
9.98515e-10
2.82166e-10
2.06195e-10
1.30748e-11
2.73905e-12
6.29474e-13
9.24957e-14
1.81749e-14
0.12494
0.114204
0.00347776
0.000211819
0.00344992
0.000164784
0.000164179
0.000164067
0.000203639
0.000248757
0.000214212
0.000238754
0.00729466
0.0014849
7.07836e-07
5.44181e-09
2.0105e-11
9.51499e-12
1.57756e-12
3.4686e-13
6.79242e-14
1.00051e-14
1.29488e-15
0.14705
0.254213
0.000209559
0.000782658
0.00173296
0.00016416
0.000164167
0.000164131
0.000165638
0.000186133
0.000340476
0.000255715
0.00923286
0.011861
2.25562e-05
1.28747e-07
4.60222e-11
4.00133e-13
3.40043e-13
2.80183e-14
1.15162e-15
6.83555e-16
8.3291e-17
0.18563
0.128968
0.000458963
0.0026064
0.0017398
0.000164005
0.000164047
0.000163632
0.000179203
0.000282672
0.00259305
0.000370865
0.0117994
0.0118637
2.53628e-05
8.07729e-09
1.5533e-09
1.19489e-08
6.03793e-07
5.02989e-08
-9.07935e-11
-1.12155e-12
-4.8714e-17
0.13826
0.235877
0.000480589
0.00166183
0.000358318
0.000161932
0.000163331
0.000172541
0.000441122
0.00374761
0.00289221
0.000384716
0.00982979
0.0118469
3.40215e-05
1.41171e-07
2.27172e-07
0.000968533
0.00501196
0.00232749
4.85375e-07
8.71878e-10
1.58465e-12
0.138173
0.240989
0.216535
0.00129809
0.00100449
0.000456268
0.000176349
0.00112622
0.00512409
0.00302663
0.000538654
0.000228611
0.0075128
0.00226588
4.37177e-07
3.71453e-07
5.42168e-06
0.00387285
0.000207187
0.00547574
0.00118235
2.11267e-07
1.67389e-11
0.364978
0.294649
0.00505899
0.0323087
0.00178363
0.000816993
0.00625156
0.00727282
0.000792787
0.00120042
0.00806209
3.10659e-06
5.44188e-06
2.2412e-06
2.32093e-07
2.43834e-07
5.09021e-05
2.04469e-05
2.03795e-05
0.00547638
0.00551013
4.84467e-07
7.50426e-10
0.369154
0.0606132
0.000318418
0.0492005
0.000924355
0.0134557
0.00904246
0.00020495
0.000551579
0.012481
0.00930323
2.77384e-06
1.87495e-06
8.68931e-07
2.34385e-07
6.48849e-05
0.000167414
8.64847e-06
4.43294e-05
0.00547591
0.00551034
1.52627e-08
2.04269e-10
0.0615596
0.0458016
0.000326312
0.0137479
0.014744
0.0109992
0.000120904
0.000231716
0.0122613
0.0022987
2.94074e-06
2.60489e-06
2.24713e-06
4.11305e-06
0.000945887
0.000316961
3.70746e-09
9.37938e-06
4.55456e-07
0.00112709
4.16245e-05
1.42093e-08
2.6159e-08
0.0041325
0.175821
0.00032403
0.000520889
0.014851
0.000121404
0.000331202
1.7801e-05
0.00560412
0.000132244
0.000615658
0.00536768
0.00536586
0.000333373
0.000651524
8.53889e-11
4.92209e-10
9.45485e-08
1.14061e-06
3.32075e-06
1.48581e-07
9.09329e-10
1.59055e-08
0.00401809
0.155478
0.000290115
0.000280541
0.0100065
4.59889e-06
4.52072e-06
9.71188e-05
0.000793138
0.000214593
0.00284657
0.00192534
0.00309523
0.00678392
1.11458e-05
5.92525e-11
9.21395e-10
4.06826e-12
4.25779e-12
6.11127e-09
4.31147e-10
3.25675e-11
1.08856e-09
0.00401777
0.00961132
0.000296281
0.0011466
0.00546096
5.14593e-06
4.20567e-06
9.38376e-06
0.00195429
0.00195426
0.00126702
0.000323589
7.27456e-07
0.0012534
5.74977e-06
6.3544e-11
1.49146e-10
5.86582e-12
3.42386e-12
3.34147e-12
1.16124e-12
4.31047e-12
5.37969e-11
0.0040313
0.0833909
0.13753
0.108355
0.00193154
3.93248e-05
2.20868e-05
8.26577e-11
1.72426e-10
1.47925e-10
8.363e-07
1.50904e-12
6.51759e-08
1.90552e-11
-5.64609e-14
-2.67085e-13
-2.20968e-14
1.20355e-16
1.81961e-15
2.54747e-14
4.06254e-13
4.88285e-12
2.8932e-11
0.168163
0.0693806
0.143512
0.0253202
0.0058004
3.32981e-05
3.94977e-12
1.08021e-09
1.88419e-09
1.10935e-09
3.55097e-15
6.61116e-15
-1.77048e-17
-7.5236e-16
1.56682e-16
4.77053e-16
1.79209e-17
2.21348e-17
6.62078e-16
2.05025e-14
5.30437e-13
8.09517e-12
4.56454e-11
0.0868357
0.00165388
0.112969
0.0706384
0.0139796
2.67398e-05
2.42496e-12
6.72147e-12
2.77593e-12
1.71937e-13
3.89773e-15
7.02719e-15
4.30814e-16
1.16389e-18
5.17135e-17
3.47854e-19
2.07265e-19
1.65583e-18
6.08856e-17
2.18926e-15
9.07297e-14
3.31378e-12
3.48352e-11
0.0287309
0.000784175
0.00117175
0.00501026
0.0139796
2.40883e-05
2.33901e-12
2.33769e-12
3.56654e-13
9.28441e-14
4.78261e-12
2.01804e-12
1.58026e-12
1.74735e-14
4.12633e-15
3.84402e-16
5.90752e-20
4.07562e-20
1.87718e-18
1.10596e-16
8.1303e-15
1.14374e-12
3.64509e-11
0.0570345
0.000721541
0.000722585
0.00106071
0.00348043
6.54368e-05
2.63273e-12
1.34603e-11
4.09169e-12
7.64213e-12
1.42575e-09
1.19685e-09
4.53077e-10
1.70543e-12
-7.28156e-13
8.1844e-14
2.28152e-16
2.96537e-19
2.78074e-21
1.30749e-19
1.19406e-17
2.02621e-15
3.10058e-13
0.0141326
0.00706372
0.000705303
0.00885364
0.000494025
3.60474e-05
3.56945e-12
6.70339e-12
4.54522e-08
2.24786e-09
1.22176e-06
5.68717e-07
2.33766e-07
-1.8308e-09
-1.73475e-11
1.23644e-13
2.12607e-15
2.73984e-18
4.9524e-21
5.90639e-23
1.31252e-20
2.28345e-18
4.38099e-16
0.00439519
0.00608898
0.00543311
0.0114253
4.83046e-05
5.13709e-10
9.27024e-11
5.07487e-09
1.73124e-07
3.27214e-06
0.000646436
0.00103219
0.000353852
6.68069e-08
-1.02523e-10
6.38201e-14
5.85064e-15
5.30979e-18
6.76699e-21
2.09256e-24
1.94677e-23
1.20801e-20
8.61722e-18
0.00793038
0.00813515
0.0111394
0.00336208
0.000193407
3.72218e-07
1.73921e-05
0.000210509
2.18298e-06
7.10717e-06
1.64308e-05
0.000436753
0.00108624
0.000875812
-2.51376e-10
1.82522e-14
1.90926e-15
6.72557e-18
1.03029e-21
3.79316e-25
1.95284e-28
9.57157e-26
3.20658e-21
0.0103655
0.00426907
0.000520133
3.23606e-05
8.80856e-06
1.46571e-06
0.000197988
0.000186081
3.66525e-06
2.39421e-05
6.14536e-05
0.00105051
0.001084
0.000446621
-2.907e-21
1.26457e-12
1.23144e-17
1.3254e-17
3.75567e-23
1.5436e-26
2.71794e-30
2.40662e-29
3.82105e-25
0.00974805
0.0642204
1.57729e-05
5.56549e-06
2.73561e-06
5.19822e-06
0.000255104
0.000252873
0.000243573
0.000215483
5.03494e-06
3.68282e-09
0.00029547
6.31716e-07
2.12305e-09
1.03921e-08
-7.0412e-19
5.03303e-18
2.55957e-24
2.08545e-28
4.53062e-33
0
2.80457e-28
0.0111734
0.0496715
0.000464721
5.29759e-06
2.31399e-06
8.24311e-06
0.000255883
0.000255877
0.000232601
1.32896e-05
1.88777e-05
2.92994e-09
1.13938e-07
3.03425e-07
8.85991e-07
8.27722e-09
0
4.79695e-17
3.64292e-25
4.7884e-31
-3.5357e-32
-1.42683e-30
-1.60336e-28
0.00908677
0.0846511
0.00995122
0.00168464
2.20183e-06
1.71324e-05
0.000254782
9.5215e-06
2.08383e-05
0.000452031
0.000847215
1.14923e-10
6.19778e-07
1.15766e-06
6.14224e-07
3.81076e-08
1.6267e-07
7.44979e-16
1.76012e-52
6.38309e-33
-6.96502e-33
-1.32555e-31
-1.6172e-29
0.0166734
0.0863966
0.0066175
0.00880225
2.20394e-06
1.00821e-05
0.00024223
4.13775e-06
6.78218e-06
0.00075704
2.80502e-05
8.75696e-14
5.81437e-12
1.95329e-09
1.93933e-05
5.1886e-05
2.7026e-07
9.21197e-16
-4.6682e-30
4.16668e-35
-4.02077e-34
-1.49293e-34
-2.60695e-32
0.0164176
0.0864675
0.00614754
0.00923792
0.000341795
7.12933e-05
0.000155351
3.92254e-06
4.87049e-06
0.000771395
1.38763e-14
-1.65053e-16
3.65274e-13
4.50485e-10
8.09534e-06
5.30268e-05
-1.57732e-13
4.35786e-17
-3.75857e-30
-3.04805e-38
4.25902e-42
-2.70296e-39
-1.10112e-36
0.000542177
0.00638669
0.0202312
0.00567237
0.0021953
5.78938e-05
4.83867e-06
4.49497e-06
0.000363764
-1.99439e-13
-9.15157e-14
-2.00309e-16
-4.5968e-17
-1.39838e-13
-6.70763e-13
-2.79209e-12
-4.61054e-13
-3.44967e-17
-4.09247e-35
-2.43275e-39
-2.1197e-45
-4.98027e-44
-6.97836e-42
0.523649
0.426189
0.435456
0.434009
0.0268121
0.259613
0.255499
0.354006
0.00604791
6.38617e-05
7.94814e-05
0.0280673
6.65394e-05
6.39083e-05
7.92986e-05
0.000115503
8.30507e-05
0.000673383
0.000673383
0.000589926
0.000373442
0.000671763
0.000219952
3.11091e-07
6.35158e-05
6.97436e-05
0.000226977
1.02149e-05
5.3176e-05
0.000119136
5.23881e-05
0.000722041
5.25516e-05
5.21941e-05
5.21941e-05
0.000714272
5.28056e-05
5.22258e-05
0.000241784
0.000878259
0.00111869
0.00112841
6.64886e-06
1.96646e-09
7.56859e-07
1.16571e-08
2.70544e-10
4.29192e-11
4.75146e-11
2.51181e-11
6.32837e-11
3.3266e-11
3.96076e-12
3.0236e-12
1.61319e-12
1.05831e-12
1.40887e-13
1.16609e-13
9.96341e-14
8.76767e-14
9.2994e-15
7.55262e-15
6.31606e-15
5.5964e-15
4.37921e-16
3.69672e-16
3.56681e-16
5.27331e-16
2.54516e-17
2.74778e-17
4.91124e-17
1.07611e-16
1.57644e-17
3.72642e-17
2.34756e-16
7.35613e-16
-1.94278e-16
3.30641e-16
2.8352e-15
9.87293e-15
3.27888e-15
6.07636e-15
2.39879e-13
1.71296e-12
6.96841e-14
1.12043e-13
1.54402e-13
2.24699e-13
-5.46116e-10
-7.73081e-10
0.000121084
0.00118716
2.52795e-06
0.00111476
0.00118695
0.00118716
2.14498e-06
0.000267482
0.000463483
8.97989e-09
7.64961e-08
1.46671e-07
2.99384e-08
1.40434e-09
2.09398e-10
6.63934e-10
9.93305e-10
1.36717e-09
5.97397e-11
9.59409e-11
5.71233e-10
7.29514e-09
8.79382e-11
1.06236e-10
8.11179e-10
3.71725e-07
8.24621e-11
9.46087e-11
2.486e-08
1.29313e-07
7.74564e-11
8.26731e-11
1.57362e-11
2.55002e-11
3.656e-12
5.96819e-12
6.35413e-12
4.17768e-12
1.67611e-14
8.27292e-14
2.06531e-13
3.82934e-13
1.47842e-16
2.80249e-16
4.11372e-16
8.00673e-16
5.58503e-19
3.84462e-18
7.66437e-18
6.81917e-18
3.08288e-22
1.88204e-20
7.06245e-20
6.92996e-20
8.42355e-27
2.08688e-23
4.0011e-22
8.50581e-22
-1.96548e-26
-5.90775e-25
-1.25558e-23
-1.55274e-22
-1.82151e-27
-4.52998e-26
-8.78939e-25
-1.32655e-23
-4.40681e-30
-1.63659e-28
-4.91786e-27
-1.18799e-25
-4.40524e-34
-3.68982e-32
-2.48698e-30
-1.32834e-28
-1.81052e-39
-1.70586e-37
-1.6019e-35
-2.01591e-33
0.381414
0.991057
0.899684
0.469854
0.396741
0.1139
0.73227
0.20872
0.049123
0.00371385
0.148845
0.302546
0.472376
0.0526286
0.0526384
0.663219
0.890898
0.901773
0.423071
0.244888
0.0207632
0.366928
0.703406
0.594689
0.676102
0.218071
0.719854
0.698508
0.00258883
0.0202971
0.00110292
0.142231
0.585228
0.427596
0.905799
0.905834
0.528508
0.127977
0.328908
0.0609832
0.0138226
0.223977
0.910551
0.911024
0.277154
0.599872
0.681441
0.00256038
0.00250021
0.00117821
6.8221e-05
7.24178e-05
0.480759
0.802312
0.415505
0.00201922
0.00193526
0.0141314
0.34292
0.0133606
0.0133606
0.490258
0.911024
0.150099
0.136363
0.00261766
0.00258133
0.0173858
0.000139661
6.774e-05
6.98161e-05
0.00014948
0.00404358
0.00363893
0.0029057
0.00252331
1.57559e-05
0.0267898
0.487456
0.0133693
0.013393
0.0693203
0.0551042
0.372694
0.00308565
0.0369256
0.00837531
6.32407e-05
6.42058e-05
0.000479152
0.000168252
0.000216202
0.00112776
0.000116264
0.000116376
1.12648e-06
3.1346e-06
0.076567
0.637518
0.549324
0.631031
0.548476
0.0733409
0.0140456
0.0368012
0.00147574
5.77831e-05
6.4082e-05
0.000718204
0.000185858
0.0014996
0.000850268
0.00203161
0.00011776
2.99139e-08
2.96221e-08
1.72073e-08
6.42145e-06
0.404532
0.712161
0.199321
0.036405
0.0101488
0.000234946
0.00429267
6.58881e-05
5.79664e-05
0.000718074
0.000355354
0.000441505
3.02991e-05
0.00209938
0.000567464
6.56699e-08
4.63133e-09
3.70646e-09
1.98754e-08
2.33062e-06
4.57833e-05
0.000678046
0.00307997
0.0234217
0.000255326
0.00111212
0.0470929
5.89855e-05
7.40862e-05
0.00153009
1.68416e-05
0.000198673
0.00209615
0.000528887
5.16882e-05
1.14524e-06
3.47901e-09
4.98958e-08
3.27271e-07
6.56395e-07
0.000717566
8.53574e-05
0.00444061
0.0566284
0.078501
0.0316209
6.18888e-05
6.91346e-05
0.00153009
1.6565e-05
1.65632e-05
0.000614101
0.000730894
2.4406e-06
3.24052e-06
4.19158e-09
3.06411e-08
1.49835e-08
1.24849e-08
1.17518e-07
3.75999e-07
0.00353148
0.0774012
2.18125e-06
8.23271e-06
2.1898e-05
0.00016217
2.56745e-05
2.01744e-05
1.67797e-05
0.000224658
0.000495732
2.10971e-07
8.01644e-09
1.36534e-08
9.00757e-09
2.43288e-08
1.79432e-05
0.000362643
0.000218159
3.39162e-05
0.0088555
2.08056e-06
2.08237e-06
2.34153e-06
1.63444e-05
2.63949e-05
3.73362e-05
0.00012324
3.07521e-05
3.0986e-05
2.44868e-11
3.78608e-10
2.67304e-09
3.10898e-09
5.18601e-10
0.000366288
0.000231477
3.64459e-06
3.64458e-06
0.000140429
1.92205e-06
1.89073e-06
1.99208e-06
2.37216e-06
0.000412816
3.08417e-05
0.000333598
0.000672498
0.000369185
1.80917e-11
9.85172e-12
3.2447e-09
5.72393e-09
4.75753e-10
2.78409e-08
0.000343312
5.24144e-05
9.66165e-06
8.11331e-05
2.5146e-05
1.8671e-06
3.03175e-06
2.08209e-05
0.000511037
0.000511037
5.32203e-05
0.00124981
0.00124986
9.17677e-13
4.82981e-12
2.94693e-10
3.12759e-09
3.71031e-10
2.58621e-06
0.000184892
0.000115285
0.00139201
8.68729e-06
2.11267e-06
1.86189e-06
1.86288e-06
4.52199e-06
0.000123039
0.000129514
5.36642e-05
0.00124348
0.00125001
1.33819e-13
5.75711e-12
2.88768e-11
9.50554e-11
4.43876e-11
4.35615e-11
1.47751e-08
3.55333e-06
0.00219993
0.000239258
0.00129934
3.51955e-06
1.94539e-06
2.10815e-06
0.000248131
9.55638e-05
0.000356234
0.00126475
8.03325e-05
5.26569e-15
5.04484e-13
1.40556e-11
4.05476e-11
5.09774e-11
5.53905e-11
1.76715e-10
1.04094e-07
0.00157275
0.0022069
0.0011751
2.96569e-05
2.43367e-06
2.10816e-06
0.000380939
9.94345e-05
0.00126139
0.00126456
0.000312315
1.09093e-15
1.53819e-14
1.52963e-12
1.67576e-11
5.31138e-11
1.43683e-10
2.86326e-08
1.09536e-06
1.9345e-05
0.000750612
0.00015172
0.000933253
0.000933253
0.000693063
0.000106984
0.000605418
0.00125489
0.00106757
0.000962768
4.73519e-15
5.47482e-13
9.97041e-12
3.69098e-11
6.80917e-11
2.14302e-08
0.000155261
0.00122577
0.00130227
0.00070604
6.20296e-05
0.000246491
0.000161343
8.42374e-05
0.000397599
0.000241712
0.00114322
2.09367e-05
1.15503e-05
1.41685e-13
7.09773e-12
3.85263e-11
5.42857e-11
3.36287e-09
4.42256e-05
0.0013684
0.00122212
0.000635879
0.00124428
0.00125719
8.06057e-06
1.61806e-06
1.61806e-06
0.000545311
0.000148092
0.00109575
0.000781457
4.1218e-06
1.85085e-12
2.42442e-11
3.74829e-11
1.30012e-10
7.55291e-08
0.00131008
0.00128752
3.33857e-06
4.19446e-06
2.7896e-05
0.00127018
0.000165992
6.9758e-07
0.000513318
6.04368e-05
8.88663e-05
0.000839845
0.000784831
2.66564e-06
4.76326e-12
1.23286e-11
1.88468e-08
7.03218e-09
0.000285794
0.00121276
3.49614e-06
3.33857e-06
0.000425577
0.000250755
0.000225342
5.30434e-05
4.91176e-07
0.000563027
6.08371e-05
5.91809e-05
0.00094501
0.000141632
2.48853e-06
3.0931e-13
4.40335e-13
1.26799e-10
1.14637e-06
0.00107766
5.2709e-06
5.51215e-06
3.47e-06
0.000237522
0.000356905
3.50239e-07
4.66354e-07
4.78402e-05
0.000561206
5.70246e-05
0.00047507
0.000746671
0.000831342
0.000421589
0.00118713
2.02427e-05
2.79836e-08
0.000170615
0.000212985
1.08205e-05
0.000649859
4.84499e-05
3.81902e-06
0.00035551
2.40588e-07
4.04948e-07
2.64935e-06
0.000564788
5.69262e-05
7.54138e-05
9.3572e-05
0.00120849
0.000319978
0.00118178
3.24005e-05
4.48068e-08
0.000447631
3.02793e-06
3.02875e-06
5.22218e-06
0.000655621
1.35097e-06
0.000157814
0.000209795
1.72553e-07
1.70871e-07
1.06688e-05
0.000457529
0.000700221
0.00120962
0.00120962
2.23494e-06
8.45866e-07
0.000572302
9.47552e-08
4.33173e-05
0.000167234
3.02932e-06
2.59996e-05
4.54902e-06
7.50582e-06
8.10708e-09
0.000409311
0.000385207
0.000108942
0.000111847
0.000351234
0.000613957
0.000164415
1.82229e-06
6.16359e-07
1.4988e-09
1.2612e-07
0.0009162
0.000930407
0.00052595
5.86749e-06
0.000256877
2.10657e-06
4.55875e-06
6.35826e-10
6.16821e-12
2.48897e-12
0.000263499
0.000249523
0.000695359
0.000821087
0.000250663
8.19728e-07
4.62224e-06
1.70334e-09
8.83138e-05
0.00013658
0.000552834
0.000913607
0.000540143
0.000128548
5.89647e-07
1.13676e-09
3.19094e-09
1.1543e-10
5.08303e-12
2.30018e-12
2.09758e-12
1.95674e-08
0.000820328
0.000188658
9.52206e-07
0.000254138
9.78054e-05
0.000256164
0.000174293
1.28534e-07
1.22775e-07
4.06387e-07
1.51381e-08
4.19864e-10
2.37097e-09
1.73654e-09
2.80025e-11
1.26468e-11
1.8577e-12
9.91179e-13
1.08887e-10
6.08209e-05
7.13704e-05
1.09787e-06
0.000646365
7.31213e-05
1.51045e-07
1.45796e-07
1.7261e-07
1.20763e-07
7.337e-05
5.74236e-05
3.2141e-10
2.84192e-11
8.10368e-11
8.87607e-12
6.66421e-12
8.7291e-13
1.50634e-12
2.54861e-12
6.7809e-10
3.40862e-06
1.12634e-06
0.000901963
2.88687e-08
1.80926e-05
2.40436e-08
2.39732e-08
2.19775e-08
3.43928e-05
0.000111385
9.3586e-05
8.34343e-14
2.66735e-11
4.47249e-12
4.17841e-13
1.33189e-13
2.09436e-12
2.04654e-11
4.71158e-11
3.41009e-05
0.000121898
5.16585e-08
3.0821e-09
2.4912e-05
2.4912e-05
1.84917e-07
2.34265e-08
2.18955e-08
2.25958e-08
0.000111963
5.27361e-15
6.44096e-12
6.6417e-13
2.15462e-14
7.3821e-15
2.71653e-14
2.76118e-11
6.84686e-11
7.86316e-08
1.61793e-07
1.62524e-06
2.40646e-12
2.28634e-12
7.00937e-06
1.56818e-05
2.46988e-07
2.25888e-08
1.17208e-07
0.000107906
1.30782e-16
3.27512e-13
1.64104e-14
5.14364e-16
3.13294e-16
2.08838e-16
1.42182e-12
1.56908e-10
5.99462e-15
-2.17377e-14
0
9.91013e-13
7.51705e-12
5.48758e-10
5.39966e-10
4.57851e-10
1.08632e-06
5.97662e-07
-1.96043e-17
5.60055e-17
3.20553e-15
1.28191e-16
9.04372e-18
6.71589e-18
4.33901e-17
2.97521e-15
3.91841e-14
5.82338e-13
-1.12743e-14
9.99359e-14
4.45372e-15
1.08546e-12
4.39027e-10
3.854e-10
4.619e-10
1.06539e-06
-1.54538e-17
-1.05232e-16
-2.24118e-18
8.38028e-18
1.79222e-18
1.54878e-19
4.19979e-20
-2.66074e-18
-4.82307e-17
-3.80529e-16
-1.60412e-15
-2.94008e-15
-2.38854e-15
3.77459e-17
3.03824e-14
1.85355e-12
1.28433e-11
4.58433e-09
2.07965e-11
-8.41636e-17
-1.70096e-16
-4.23349e-18
1.05379e-20
6.56353e-21
1.01544e-21
-4.54277e-21
-2.84425e-19
-5.09001e-18
-4.48987e-17
-2.33877e-16
-5.57242e-16
-6.87477e-16
1.38366e-18
1.30658e-17
8.07877e-17
1.30332e-11
3.54143e-09
1.25616e-10
-6.06271e-17
-1.61952e-16
-3.3584e-18
-1.36529e-21
-6.21147e-23
-3.80153e-25
-3.00237e-22
-1.47416e-20
-3.10294e-19
-3.4512e-18
-2.34729e-17
-7.51576e-17
-7.28077e-17
7.49812e-22
8.6069e-22
1.92313e-17
1.8572e-12
3.11194e-14
1.80474e-11
-6.84731e-17
-9.61188e-17
-1.76e-18
-7.12139e-22
-1.24266e-23
-1.17803e-25
-7.73014e-24
-4.15329e-22
-1.09755e-20
-1.63266e-19
-1.51909e-18
-6.74148e-18
-4.41168e-18
-1.07881e-21
-2.30538e-21
1.69551e-17
8.49012e-16
5.34533e-15
1.47509e-12
-5.88353e-17
-3.50649e-17
-5.49571e-19
-2.26553e-22
-1.0045e-24
-1.6496e-26
-8.8984e-26
-5.82667e-24
-2.06325e-22
-4.32287e-21
-5.73934e-20
-3.65529e-19
-1.71039e-19
-1.57582e-22
-6.148e-21
-1.66069e-19
-1.33874e-18
7.79899e-17
1.62457e-14
-1.90478e-17
-7.45024e-18
-9.17053e-20
-3.85687e-23
-3.69165e-26
-1.12601e-27
-6.53549e-28
-3.41477e-26
-1.71821e-24
-5.36969e-23
-1.07294e-21
-1.02795e-20
-4.21605e-21
-2.29949e-24
-1.60192e-22
-7.89684e-21
-1.40689e-19
4.1845e-19
2.5798e-16
-4.71071e-18
-8.33338e-19
-6.93505e-21
-2.79067e-24
-3.97469e-28
-2.10097e-29
-1.17623e-29
-5.55028e-29
-4.29286e-27
-2.18714e-25
-7.17004e-24
-1.11624e-22
-5.10414e-23
-5.55747e-27
-9.08646e-25
-1.05155e-22
-4.53432e-21
3.12343e-38
1.33128e-18
-7.92374e-19
-4.21402e-20
-1.86922e-22
-5.95351e-26
-7.04161e-33
-4.5102e-32
-4.45707e-32
-7.25647e-33
-1.04123e-30
-1.04455e-28
-6.62403e-27
-1.92959e-25
-1.19696e-25
-3.27831e-31
-2.47854e-28
-1.26935e-25
-2.13754e-23
-2.01214e-22
1.00408e-21
-3.75171e-20
-6.37541e-22
-1.22584e-24
-2.44869e-28
-1.69305e-37
-1.66497e-38
-4.12953e-39
-7.95898e-39
-2.47513e-36
-4.49287e-34
-4.53322e-32
-1.74436e-30
-1.15958e-31
1
1
1
1
1
1
1
1
1
0.997715
0.991016
0.981669
0.972311
1
1
0.999936
0.999933
0.997443
0.99972
1
0.999993
0.999985
0.999999
1
1
1
1
1
1
1
1
1
1
0.963146
0.963638
0.978738
0.999999
0.999999
0.998244
0.999805
0.995889
0.984433
1
0.999992
0.999885
1
1
1
1
1
1
1
1
1
0.999999
0.999998
1
0.999836
0.995649
0.997545
0.999997
0.995549
0.994033
0.966925
1
1
1
1
1
1
1
1
1
1
1
1
1
1
1
1
1
1
0.999999
0.999994
0.997251
0.996689
0.929787
1
0.999994
0.999996
1
0.999998
1
1
1
1
1
1
1
1
1
0.999998
0.999999
1
1
1
1
0.999995
0.874507
0.897122
0.999989
0.985188
0.978699
1
0.999998
1
0.998297
0.99884
1
1
1
1
0.999999
0.999735
0.90167
0.838835
0.987408
1
1
1
0.999998
0.874507
0.939116
0.992289
0.952915
0.950782
0.997165
0.999998
1
0.998883
0.990636
1
1
1
1
0.999703
0.372942
0.324696
0.322024
0.323083
0.336153
0.664285
0.999999
0.999999
0.996171
0.999538
0.967489
0.996348
0.997326
0.980374
0.999998
1
1
0.987421
1
1
1
0.999906
0.37923
0.387336
0.837825
0.553361
0.671151
0.795191
0.988493
0.999731
1
0.999994
0.999888
0.987197
0.994583
0.999238
0.999955
0.999998
0.993053
0.972653
0.819762
0.976872
0.993524
0.99352
0.964726
0.639967
0.639967
0.764206
0.756376
0.866322
0.603076
0.380018
0.917845
0.917775
0.866309
0.918803
0.920437
0.99211
0.896723
0.564625
0.580629
0.993407
0.666218
0.392698
0.961123
0.961096
0.9587
0.673443
0.517881
0.855806
0.33852
0.601738
0.914643
0.743421
0.44139
0.647258
0.992063
0.905937
0.969988
0.601958
0.937361
0.379095
0.944446
0.824465
0.960895
0.591292
0.770415
0.0550511
0.689757
0.495838
0.318674
0.922949
0.396722
0.619069
0.600336
0.952826
0.520863
0.976309
0.579137
0.439097
0.395012
0.944449
0.944434
0.88971
0.0761232
0.0760374
0.0521584
0.0521545
0.888765
0.797617
0.950729
0.39602
0.745648
0.834285
0.978026
0.274577
0.98204
0.522461
0.377508
0.75299
0.944446
0.944435
0.895519
0.0907704
0.0762246
0.364171
0.0520654
0.665487
0.954367
0.955204
0.395728
0.892607
0.704622
0.958014
0.258729
0.972055
0.98673
0.711026
0.559919
0.944462
0.944357
0.918567
0.354206
0.0867644
0.348115
0.0520026
0.0520409
0.923325
0.955205
0.397834
0.834164
0.895208
0.987691
0.257545
0.811045
0.987924
0.667557
0.917952
0.894883
0.824136
0.165541
0.335121
0.102788
0.435603
0.0520206
0.0520769
0.0710106
0.954236
0.856944
0.897505
0.750676
0.991676
0.625207
0.416123
0.987686
0.157517
0.419543
0.337478
0.0218532
0.0328306
0.00608244
0.109693
0.443736
0.0521131
0.0520796
0.075419
0.893766
0.873284
0.898742
0.193453
1
1
0.987419
1
1
0.999976
0.608785
0.396713
0.839031
0.838677
0.584191
0.333906
0.358022
0.81177
0.999906
1
1
0.999989
0.948743
0.276895
0.762918
0.939646
0.78574
1
1
0.987376
0.999999
0.999993
0.785206
0.475292
0.839168
0.839207
0.750363
0.362796
0.362038
0.36747
0.687655
0.958069
0.918272
0.930911
0.999975
0.992794
0.150536
0.00458518
0.233913
0.00257141
1
1
0.991276
0.999998
0.999879
0.492698
0.648275
0.201573
0.0891026
0.00679061
0.00670737
0.124608
0.119586
0.864669
0.991086
0.992787
0.999958
0.999949
0.978858
0.00906484
0.00414951
0.00678529
0.0534994
1
1
0.999999
0.999998
0.999981
0.948327
0.456767
0.00625961
0.00971802
0.0129384
0.00654029
0.00657598
0.124747
0.0126943
0.0105263
0.135295
0.999236
0.999414
0.141004
0.000902566
0.00341118
0.0153283
0.00142216
1
1
1
1
0.999519
0.763497
0.525938
0.00625433
0.00625433
0.0390333
0.010684
0.0315151
0.0165782
0.0787175
0.0102792
0.0166989
0.0475578
0.119212
0.00162137
0.000852184
0.00760038
0.020223
0.000106059
0.867681
0.976164
0.999999
0.99502
0.998709
0.697886
0.496336
0.0877204
0.130823
0.050564
0.0513324
0.0539628
0.0209646
0.0780567
0.0160476
6.83716e-05
9.02182e-05
0.000127136
0.00363384
0.000357421
0.00159037
6.52326e-05
6.39537e-05
0.840982
0.894703
0.984838
0.99637
0.886703
0.974371
0.205921
0.265013
0.00261752
0.00261752
0.0431623
0.0115133
0.0412751
0.0194681
0.00643408
6.20867e-05
6.44193e-05
0.00178559
0.000284967
0.000439873
0.000349286
0.000906829
6.34745e-05
0.947051
0.952513
0.732055
0.804184
0.97415
0.974818
0.973201
0.0254925
0.0111334
0.0114705
0.00137793
0.00137793
0.00488996
0.00359042
0.00772834
0.00028006
0.000733708
0.0036349
0.000116632
0.00215835
0.000379511
0.00119137
5.44234e-05
0.752472
0.0203799
0.12168
0.0776059
0.266802
0.689336
0.0398375
0.000355797
0.00140598
0.0168501
0.00282713
0.00140218
0.0204861
0.00359931
0.00766224
0.000434354
0.00508801
1.0506e-06
4.75615e-07
4.33032e-07
0.000960553
0.00100991
5.39778e-05
0.943562
0.0921132
0.0102259
0.00948614
0.00946844
0.0333784
0.000254651
0.000134398
0.00177001
0.0199338
0.0177692
0.0165484
0.020626
0.0169434
0.001553
0.00590873
0.00173778
3.80163e-08
8.4219e-09
0.000141015
0.00170465
0.00190611
5.55696e-05
0.256586
0.401108
0.149972
0.009606
0.00946823
0.0157253
0.0278806
0.00662612
0.00598622
0.0034223
0.000296432
0.000388805
0.00128226
0.0199527
0.00106702
0.00619806