/*--------------------------------*- C++ -*----------------------------------*\
| =========                 |                                                 |
| \\      /  F ield         | OpenFOAM: The Open Source CFD Toolbox           |
|  \\    /   O peration     | Version:  v1912                                 |
|   \\  /    A nd           | Website:  www.openfoam.com                      |
|    \\/     M anipulation  |                                                 |
\*---------------------------------------------------------------------------*/
FoamFile
{
    version     2.0;
    format      ascii;
    class       surfaceScalarField;
    location    "1";
    object      alphaPhi0.water;
}
// * * * * * * * * * * * * * * * * * * * * * * * * * * * * * * * * * * * * * //

dimensions      [0 3 -1 0 0 0 0];
oriented        oriented;


internalField   nonuniform List<scalar> 
17936
(
1.60892e-06
-1.88161e-06
2.72691e-07
-2.91223e-06
3.89056e-06
-9.78336e-07
-4.19306e-06
3.89454e-06
2.98524e-07
-3.57463e-06
3.65301e-06
-7.83823e-08
-4.13457e-06
4.79389e-06
-6.59315e-07
-5.48766e-06
6.15923e-06
-6.71574e-07
-6.80726e-06
7.45814e-06
-6.50883e-07
-8.13696e-06
8.85074e-06
-7.13786e-07
-9.59595e-06
1.03845e-05
-7.88567e-07
-1.12304e-05
1.20224e-05
-7.99529e-07
-1.24972e-05
1.24855e-05
-4.7272e-08
-1.20767e-05
1.11186e-05
9.45189e-07
-9.18723e-06
6.28246e-06
2.89777e-06
-2.85898e-06
1.50728e-07
2.77827e-06
1.33778e-06
-1.89458e-06
5.56802e-07
1.86409e-06
-1.35902e-06
-5.04972e-07
4.3535e-08
1.95983e-06
-2.00354e-06
-9.66131e-07
-2.69193e-06
3.65665e-06
6.60584e-06
-8.23232e-06
1.6108e-06
5.33576e-06
-1.58788e-06
-3.74913e-06
-7.7364e-07
2.48859e-06
-1.71496e-06
-3.31668e-06
3.309e-06
7.65865e-09
-2.79267e-06
1.92256e-06
8.70131e-07
1.32741e-06
-5.06768e-07
-8.20647e-07
8.63113e-07
-9.07756e-07
1.19279e-06
-1.14815e-06
5.09176e-07
3.14608e-07
-1.69339e-08
-8.06851e-07
-1.04615e-06
1.28847e-06
9.54025e-08
-3.37724e-07
-1.29896e-06
1.48764e-06
6.08879e-07
-7.97553e-07
-2.0272e-06
2.88887e-06
1.26907e-06
-2.13073e-06
-3.96673e-06
5.16492e-06
1.75109e-06
-2.94927e-06
-6.42083e-06
7.69744e-06
2.05378e-06
-3.33039e-06
-8.95328e-06
1.01241e-05
2.05805e-06
-3.22888e-06
-1.10928e-05
1.17521e-05
1.64017e-06
-2.29949e-06
-1.20713e-05
1.16557e-05
-7.7554e-07
8.66947e-07
-1.09064e-05
9.66093e-06
-2.51913e-06
3.75631e-06
-8.14383e-06
6.75066e-06
-3.74107e-06
5.14538e-06
-5.86211e-06
4.76439e-06
-4.61176e-06
5.71757e-06
-3.32577e-06
1.65213e-06
-1.7932e-06
3.46681e-06
1.75444e-07
-2.01068e-06
-1.66417e-07
2.00165e-06
2.80488e-06
-2.85766e-06
3.03663e-06
-2.93701e-06
4.88402e-06
-9.02358e-06
-8.40537e-06
1.25403e-05
1.04398e-05
-7.48793e-06
9.06302e-08
-3.01333e-06
3.81855e-06
-8.42185e-07
7.00419e-06
-9.98056e-06
-1.78894e-06
3.57622e-06
3.45887e-06
-5.24615e-06
-4.19551e-06
3.78828e-06
-2.72448e-07
6.79508e-07
-2.73289e-06
1.39759e-06
-1.87229e-06
3.20789e-06
-4e-07
1.40842e-06
-1.00842e-06
1.53366e-06
-1.91958e-06
1.04418e-06
-6.58265e-07
1.67405e-06
-6.91916e-07
1.74906e-06
-2.73119e-06
-4.90642e-07
1.4272e-06
9.36647e-07
-1.8732e-06
-2.11635e-06
2.72164e-06
1.26036e-06
-1.86565e-06
-3.31438e-06
3.93304e-06
2.89813e-06
-3.51679e-06
-4.63776e-06
5.4975e-06
3.90438e-06
-4.76413e-06
-6.52068e-06
7.68056e-06
4.47631e-06
-5.63619e-06
-8.93052e-06
1.02157e-05
4.43742e-06
-5.72264e-06
-1.14515e-05
1.25164e-05
3.16606e-06
-4.23103e-06
-1.33239e-05
1.38368e-05
-4.79924e-07
-3.2995e-08
-1.39446e-05
1.35448e-05
-4.43729e-06
4.83714e-06
-1.2657e-05
1.15142e-05
-6.66417e-06
7.84063e-06
-1.021e-05
8.66364e-06
-7.0593e-06
8.68421e-06
-6.70049e-06
4.39751e-06
-5.5537e-06
7.85654e-06
-1.99355e-06
-5.4716e-07
-4.38026e-06
6.9209e-06
3.21464e-06
-6.05879e-06
1.52553e-06
1.23683e-06
9.16508e-06
-1.06598e-05
-1.54834e-05
1.70198e-05
8.62382e-06
-5.63102e-06
6.0593e-06
-9.36517e-06
2.90138e-06
-2.81302e-07
1.26916e-05
-1.53117e-05
-2.8274e-06
4.89746e-06
7.13433e-06
-9.2044e-06
-5.31138e-06
4.32533e-06
-1.31742e-06
2.30347e-06
-2.76086e-06
1.24954e-06
-4.6589e-06
6.17022e-06
-2.56854e-06
3.89322e-06
-1.32469e-06
2.42907e-06
-3.36377e-06
-6.54571e-08
1.00016e-06
3.17573e-06
-2.04055e-06
3.81133e-06
-4.94651e-06
7.30002e-07
3.55272e-07
2.94518e-06
-4.03046e-06
-1.20402e-06
1.89092e-06
2.52014e-06
-3.20704e-06
-2.51806e-06
3.20636e-06
4.11919e-06
-4.80749e-06
-4.05354e-06
5.08661e-06
5.68867e-06
-6.72173e-06
-6.28007e-06
7.59321e-06
6.87338e-06
-8.18652e-06
-8.99213e-06
1.04624e-05
7.09731e-06
-8.56759e-06
-1.19648e-05
1.33774e-05
5.44205e-06
-6.85467e-06
-1.44943e-05
1.5098e-05
5.81612e-07
-1.18533e-06
-1.50753e-05
1.44533e-05
-5.32503e-06
5.94711e-06
-1.33887e-05
1.20859e-05
-8.99187e-06
1.02947e-05
-1.06187e-05
8.89671e-06
-1.02948e-05
1.20168e-05
-6.81413e-06
4.42863e-06
-1.0194e-05
1.25802e-05
-1.96549e-06
-5.56147e-07
-9.46577e-06
1.19876e-05
3.90417e-06
-7.98797e-06
-4.74315e-06
8.58988e-06
1.03121e-05
-9.13546e-06
-1.7208e-05
1.60975e-05
6.32703e-06
-4.6568e-06
1.22914e-05
-1.45336e-05
2.90141e-06
8.65592e-07
1.82803e-05
-2.20473e-05
-5.5558e-06
8.49085e-06
1.15947e-05
-1.45296e-05
-8.16467e-06
5.69836e-06
-3.81921e-06
6.28554e-06
-3.08143e-06
1.24473e-06
-7.81438e-06
9.65108e-06
-5.33995e-06
6.83393e-06
-1.49398e-06
3.07333e-06
-4.07171e-06
-2.00927e-06
3.00765e-06
3.80758e-06
-2.72648e-06
6.07434e-06
-7.15543e-06
1.58323e-06
-6.73828e-07
5.04331e-06
-5.95271e-06
-1.20106e-07
8.35626e-07
3.91524e-06
-4.63076e-06
-1.58473e-06
2.45957e-06
5.60058e-06
-6.47543e-06
-3.49937e-06
4.69781e-06
7.84826e-06
-9.0467e-06
-6.01893e-06
7.44028e-06
9.55521e-06
-1.09766e-05
-9.03506e-06
1.09096e-05
1.01781e-05
-1.20526e-05
-1.29635e-05
1.49298e-05
8.55454e-06
-1.05208e-05
-1.64381e-05
1.70978e-05
1.86093e-06
-2.52068e-06
-1.68089e-05
1.57624e-05
-6.72239e-06
7.76893e-06
-1.43127e-05
1.27876e-05
-1.17189e-05
1.32441e-05
-1.12859e-05
9.53287e-06
-1.38737e-05
1.56268e-05
-7.16679e-06
4.29403e-06
-1.5153e-05
1.80258e-05
-1.46839e-06
-1.05159e-06
-1.45014e-05
1.70214e-05
3.99623e-06
-6.81982e-06
-1.19512e-05
1.55114e-05
7.94649e-06
-6.44248e-06
-1.37265e-05
1.21573e-05
5.63402e-06
-5.37965e-06
1.66786e-05
-1.69318e-05
3.83361e-06
5.00776e-07
2.66495e-05
-3.09785e-05
-5.44695e-06
9.85573e-06
1.81276e-05
-2.18596e-05
-1.1305e-05
8.01826e-06
-9.85693e-06
1.31297e-05
-3.57879e-06
1.04945e-06
-1.17559e-05
1.42853e-05
-8.28563e-06
9.60561e-06
-1.31998e-06
3.02849e-06
-3.95307e-06
-3.96599e-06
4.89094e-06
3.75709e-06
-2.80326e-06
8.14604e-06
-9.1039e-06
1.88372e-06
-1.28768e-06
6.72064e-06
-7.31667e-06
6.78218e-07
9.46741e-09
5.35092e-06
-6.0386e-06
-8.06437e-07
1.76885e-06
7.40313e-06
-8.36554e-06
-2.9084e-06
4.21376e-06
1.02992e-05
-1.16046e-05
-5.76752e-06
7.65065e-06
1.25431e-05
-1.44263e-05
-9.69809e-06
1.1573e-05
1.41913e-05
-1.60654e-05
-1.33523e-05
1.52274e-05
1.25774e-05
-1.35321e-05
-1.59561e-05
1.66567e-05
3.16341e-06
-2.16272e-06
-1.68709e-05
1.6507e-05
-9.31283e-06
6.95532e-06
-1.4233e-05
1.19945e-05
-1.50583e-05
1.72968e-05
-1.01031e-05
8.83137e-06
-1.68833e-05
1.8155e-05
-7.4233e-06
4.54803e-06
-2.1069e-05
2.39443e-05
-1.2301e-06
-1.42394e-06
-1.95939e-05
2.22479e-05
3.68933e-06
-5.16529e-06
-1.87027e-05
2.13209e-05
5.98389e-06
-5.94068e-06
-1.12866e-05
1.11861e-05
6.99721e-06
-9.05064e-06
1.60806e-05
-1.40241e-05
1.01684e-05
-1.09799e-05
3.24158e-05
-3.15229e-05
8.82014e-06
-3.9427e-06
2.70056e-05
-3.28639e-05
-2.20213e-06
4.72028e-06
-1.35764e-05
1.10356e-05
-2.89441e-06
4.83807e-07
-1.71156e-05
1.95262e-05
-1.07127e-05
1.15365e-05
-8.23786e-07
2.39092e-06
-3.3132e-06
-5.80374e-06
6.72688e-06
3.39799e-06
-2.52044e-06
1.00089e-05
-1.08755e-05
1.83516e-06
-1.65133e-06
7.71984e-06
-7.90938e-06
1.29722e-06
-7.31527e-07
6.67462e-06
-7.24032e-06
-2.7524e-08
1.00051e-06
9.33892e-06
-1.03119e-05
-2.27498e-06
4.15364e-06
1.30779e-05
-1.49566e-05
-6.32302e-06
7.38826e-06
1.64489e-05
-1.75136e-05
-6.59673e-06
4.01134e-06
1.66744e-05
-9.56033e-06
-3.00501e-06
3.84223e-06
6.95742e-06
-8.38249e-06
-5.59014e-06
6.69263e-06
3.217e-06
-4.46562e-06
-7.01923e-06
6.68722e-06
-5.27207e-06
5.45793e-06
-5.99339e-06
4.1622e-06
-1.01305e-05
1.15822e-05
-2.51981e-06
2.49931e-06
-1.06244e-05
9.81924e-06
-5.85569e-06
4.18338e-06
-2.61645e-05
2.79242e-05
-8.82794e-07
-1.90935e-06
-2.49733e-05
2.77654e-05
3.79568e-06
-5.02452e-06
-2.30605e-05
2.42897e-05
5.51772e-06
-6.91207e-06
-1.2067e-05
1.41514e-05
1.03905e-05
-1.5044e-05
1.03631e-05
-5.24253e-06
2.08403e-05
-2.56245e-05
2.84023e-05
-2.4847e-05
2.5787e-05
-2.17997e-05
3.78961e-05
-4.18934e-05
1.45893e-05
-7.14361e-06
-5.08177e-06
-2.17316e-06
2.48923e-06
-1.53654e-06
-2.08755e-05
1.99173e-05
-1.20244e-05
1.21422e-05
-1.1779e-07
1.29982e-06
-2.15138e-06
-7.63672e-06
8.48828e-06
2.54334e-06
-1.9199e-06
1.16495e-05
-1.22391e-05
1.66302e-06
-1.92263e-06
7.86038e-06
-7.59705e-06
1.87892e-06
-1.49267e-06
7.72109e-06
-8.10733e-06
7.90131e-07
4.64486e-07
1.13333e-05
-1.25879e-05
-2.42648e-06
3.82945e-06
1.71467e-05
-1.85495e-05
-2.23065e-06
-1.60444e-06
1.58855e-05
-7.87708e-06
3.24584e-06
-5.77889e-06
4.78993e-06
-3.86407e-06
1.04151e-05
-1.47834e-05
1.13307e-05
-1.99649e-05
1.1727e-05
-4.74501e-06
1.17432e-05
-2.15279e-05
-1.0629e-06
3.63051e-06
-5.7425e-06
6.17874e-06
-4.02115e-06
2.76283e-06
-1.29593e-05
2.28734e-05
-1.15143e-06
1.16557e-07
-1.80754e-05
2.04634e-05
-2.83749e-06
2.7449e-06
-2.96598e-05
2.9933e-05
1.15199e-07
-2.77944e-06
-3.05602e-05
3.32244e-05
4.57026e-06
-5.72e-06
-2.53841e-05
2.65338e-05
6.80619e-06
-9.33335e-06
-1.61416e-05
1.86694e-05
1.40607e-05
-2.02551e-05
-8.41141e-07
7.17109e-06
2.72007e-05
-3.27365e-05
1.99338e-05
-1.44882e-05
3.54142e-05
-3.54993e-05
4.44126e-05
-4.43625e-05
3.12474e-05
-2.26241e-05
1.06753e-05
-1.92958e-05
1.22089e-05
-4.88748e-06
-1.60593e-05
8.73789e-06
7.53456e-06
-1.40922e-05
6.55761e-06
-8.60945e-06
5.07499e-06
3.3705e-06
-9.95938e-07
-1.71095e-06
2.68749e-06
1.28498e-07
-1.07362e-06
6.35615e-07
4.92007e-06
-4.4292e-06
-4.90823e-07
4.37421e-06
-8.44423e-06
4.07006e-06
1.58388e-05
-2.22692e-05
6.43438e-06
2.13117e-05
-1.25819e-05
-4.06062e-06
8.95946e-06
-8.448e-06
-6.14717e-07
9.09182e-06
-8.43227e-06
-2.18739e-06
3.8438e-06
6.84661e-06
-1.0391e-05
-2.40813e-05
3.93692e-05
-1.48895e-05
-4.47888e-05
4.21527e-05
3.01905e-06
-1.87008e-05
4.87987e-06
9.55469e-06
5.93713e-06
-1.32359e-05
7.29941e-06
1.41407e-05
-6.51164e-06
-7.62835e-06
4.77087e-07
-5.31458e-06
4.77097e-06
1.29125e-05
-1.74892e-05
3.05057e-06
1.40018e-05
-5.05852e-06
-8.87825e-06
1.9687e-05
-2.32571e-05
3.57016e-06
-6.18032e-06
4.61595e-07
-7.20686e-06
1.29451e-05
3.91877e-06
-2.81929e-06
-1.97732e-06
7.70273e-07
9.86589e-07
-1.67439e-06
-2.16431e-06
2.7605e-06
7.15636e-06
-1.50375e-05
-2.77901e-06
8.40509e-06
2.23164e-05
-2.73111e-05
-1.23743e-05
1.81817e-05
1.37392e-05
-1.07076e-05
-4.454e-06
-4.47172e-07
8.01621e-06
-4.98136e-06
7.73117e-06
-1.82704e-05
4.22775e-06
-6.8801e-06
5.23564e-07
2.13901e-06
1.36605e-05
-2.11667e-05
-2.96682e-07
7.80283e-06
2.21309e-05
-1.49316e-05
2.03804e-05
-2.96698e-05
-2.2753e-07
1.23642e-05
2.91933e-05
-4.38856e-05
-1.90171e-05
2.89112e-05
-5.00285e-07
-2.29653e-06
-3.10061e-05
1.9606e-05
-2.4112e-05
2.73e-05
-7.6388e-06
1.49458e-06
-9.98213e-06
1.45408e-05
4.24836e-06
-9.22049e-06
9.90939e-06
-5.85761e-06
1.24158e-05
-1.77243e-05
-9.59981e-06
1.41614e-05
1.23169e-05
-1.09607e-05
-2.69392e-06
1.80522e-06
7.22158e-06
-2.53922e-06
1.56163e-05
-2.75642e-05
2.30711e-05
-2.01499e-05
-2.92133e-06
4.12374e-06
-1.14716e-05
-2.09951e-05
2.82817e-05
1.14581e-05
-1.05866e-05
7.22343e-07
-1.90076e-06
7.84371e-06
-6.80409e-06
-5.18336e-06
6.83978e-06
1.39899e-05
-2.03784e-05
-1.46635e-05
2.28862e-05
2.02904e-05
-1.23201e-05
-1.24366e-05
1.27098e-05
9.93152e-06
-8.3466e-06
5.52042e-06
-8.39387e-06
2.12886e-06
-2.1105e-06
2.45568e-05
-2.45656e-05
6.34922e-06
-1.32654e-05
-7.98427e-06
1.42162e-05
1.91019e-05
-1.84763e-05
-1.34692e-05
1.39125e-05
8.61897e-06
-1.51258e-05
2.62149e-05
-5.69214e-06
1.15921e-05
1.9481e-06
5.48085e-05
-6.4887e-05
-9.70169e-07
4.16765e-06
1.88698e-06
-8.22913e-07
-1.66698e-05
2.06195e-05
-2.94647e-05
2.74894e-05
-1.32926e-05
7.92404e-06
-1.88352e-05
2.3493e-05
-3.33033e-06
-5.46476e-07
-1.54114e-06
1.02243e-05
9.11688e-06
-6.48666e-06
-1.45665e-05
1.38881e-05
7.45677e-06
-6.58152e-06
-7.13849e-07
-2.56785e-07
7.06632e-06
-1.9978e-06
3.56752e-05
-4.02991e-05
1.49987e-05
-8.41041e-06
-6.58631e-06
1.02511e-05
-8.95696e-06
-3.20381e-05
1.63864e-05
1.12308e-05
-1.4958e-05
5.68513e-06
-8.39945e-06
1.50258e-05
-1.17521e-05
-8.26576e-06
8.69151e-06
1.33659e-05
-1.38047e-05
-2.7482e-05
1.70834e-05
1.10224e-05
-1.03367e-05
-1.10205e-05
9.11389e-06
1.09539e-05
-6.51241e-06
3.02551e-05
-4.36727e-05
5.8817e-06
-7.32704e-06
2.30184e-05
-2.15719e-05
1.00974e-05
-1.35847e-05
-1.91856e-05
2.26651e-05
1.02289e-05
-9.84747e-08
-6.47324e-06
5.85921e-07
-2.00995e-07
-3.63253e-07
2.925e-06
-1.97544e-06
1.03565e-06
-5.32009e-07
2.45779e-05
-1.13491e-05
-1.24143e-07
5.08522e-07
1.10628e-06
-1.49025e-06
-1.95868e-06
1.37354e-05
-2.41968e-05
1.36771e-05
-1.79864e-05
1.86736e-05
-3.87925e-05
5.25352e-05
-1.75397e-05
8.12252e-06
-2.51618e-05
3.73964e-05
2.19037e-06
-2.42174e-06
-2.071e-05
2.88283e-05
2.52309e-06
-2.7227e-06
7.26719e-07
-7.76236e-07
3.30758e-06
-2.18612e-06
4.33091e-05
-4.43798e-05
1.19053e-06
5.48174e-06
-6.57255e-06
1.10727e-05
-6.10128e-06
-1.86147e-05
2.77444e-05
8.2134e-06
-1.93191e-05
7.7959e-06
-5.88852e-06
1.89936e-05
-1.54515e-05
-9.12973e-06
9.95173e-06
7.69785e-06
-8.34467e-06
-1.62473e-05
1.60515e-05
8.98349e-06
-9.28473e-06
-7.86616e-06
7.28593e-06
1.18517e-05
-1.14922e-05
4.64198e-05
-4.67785e-05
1.16543e-05
-1.16666e-05
2.08782e-05
-2.08654e-05
1.10499e-05
-8.41831e-06
-2.25187e-05
1.98682e-05
-4.71942e-07
3.30987e-06
3.53444e-06
-2.19796e-05
-1.83915e-06
1.07132e-06
1.12427e-06
-4.3695e-07
1.76197e-07
-3.63145e-06
1.12018e-05
-8.03585e-06
4.14834e-07
-1.35034e-07
1.85358e-06
-2.1336e-06
-2.63134e-07
1.8791e-06
-2.68342e-06
1.06742e-06
-1.23621e-05
1.72321e-05
-5.10455e-05
4.64757e-05
-1.66211e-05
1.02466e-05
-4.62419e-05
5.26475e-05
-2.34682e-06
-2.33521e-07
-3.47588e-05
3.73833e-05
-2.86315e-07
9.98431e-07
2.43977e-06
-3.65715e-06
3.35688e-07
-2.10877e-06
4.38081e-05
-4.1968e-05
-1.07121e-05
1.43302e-05
-3.49979e-06
5.41805e-06
-2.46973e-06
-2.33596e-05
2.28718e-05
5.08265e-06
-1.48678e-05
2.91153e-06
3.60271e-07
2.08943e-05
-2.12396e-05
-1.02024e-05
1.06371e-05
2.22033e-05
-2.07616e-05
-3.19872e-05
4.33819e-05
1.57552e-05
-1.01531e-05
-7.40594e-06
2.31929e-06
1.27213e-05
-1.3576e-05
4.31521e-05
-4.60111e-05
1.54724e-05
-1.57064e-05
2.10938e-05
-2.08988e-05
1.24071e-05
-6.65377e-06
-1.54292e-05
9.66545e-06
1.04764e-06
2.85316e-06
4.37286e-05
-2.18223e-05
-2.42629e-06
1.40007e-06
-1.99271e-07
6.23136e-07
1.27525e-06
-5.59554e-06
3.19604e-05
-2.7882e-05
1.21391e-06
-7.08796e-07
2.3692e-06
-2.87657e-06
3.97511e-07
-2.96998e-08
-5.05367e-07
1.3799e-07
-7.14969e-07
4.39276e-06
-2.08718e-05
3.07159e-06
-1.00851e-05
8.06353e-06
-5.68135e-05
5.88538e-05
-5.33031e-06
2.25079e-06
-2.90286e-05
2.26023e-05
-2.27133e-06
2.68326e-06
2.39793e-06
-7.62974e-07
-1.32232e-06
-1.21259e-06
3.93962e-05
-3.681e-05
-1.58777e-05
1.60631e-05
-6.33261e-07
1.99039e-06
4.19841e-07
-3.18144e-05
4.26184e-05
1.97404e-07
-5.60689e-06
-2.35988e-06
6.06596e-06
1.98951e-05
-2.10955e-05
-1.13451e-05
1.26197e-05
2.15797e-05
-2.06958e-05
-4.43023e-05
4.35926e-05
9.22213e-06
-1.64759e-05
-5.29276e-07
2.41135e-07
1.33425e-05
-1.19446e-05
4.92841e-05
-5.1211e-05
1.29604e-05
-1.60518e-05
1.96296e-05
-8.96897e-06
1.36173e-05
-5.10402e-06
-3.50844e-06
3.14071e-07
4.94072e-07
-2.79974e-06
4.36052e-06
-2.1024e-06
2.53173e-07
-2.12762e-07
-8.95252e-07
7.8138e-07
3.23747e-06
-7.72451e-06
2.10047e-05
-1.44748e-05
4.50727e-06
-1.14595e-06
4.23763e-06
-5.14786e-06
8.48073e-07
-5.46217e-07
1.51589e-07
-4.46364e-07
2.75104e-07
-3.46464e-08
-2.13725e-06
1.89104e-06
-4.15035e-07
3.8933e-06
-5.70304e-05
5.39608e-05
-2.88857e-06
1.48554e-06
-2.12264e-05
3.99839e-05
-3.1279e-06
4.16228e-06
7.19496e-07
-1.9948e-06
-5.02662e-06
3.96344e-06
3.48848e-05
-3.37635e-05
9.92673e-06
-1.58175e-05
4.35113e-06
-1.772e-06
3.9756e-06
-4.08168e-05
3.86366e-05
-4.85593e-06
8.49667e-07
-1.06184e-05
1.47968e-05
1.24077e-05
-1.85293e-05
-1.54704e-05
2.16638e-05
1.75066e-05
-6.84256e-06
-3.90257e-05
3.17055e-05
2.55181e-06
-2.53285e-06
-5.53701e-08
7.04212e-08
1.23241e-05
-8.83302e-06
5.35178e-05
-5.54937e-05
1.70762e-07
1.54502e-07
4.54102e-07
-9.26542e-07
-1.74481e-07
2.70768e-07
5.98403e-07
-1.80903e-07
-3.39966e-07
2.33533e-08
5.96571e-07
-3.01547e-07
1.68156e-06
-1.46979e-07
-1.58168e-06
5.8661e-07
5.47454e-06
-1.00478e-05
1.36007e-05
-1.87817e-05
1.02605e-05
-2.2703e-06
9.60557e-06
-1.62108e-05
1.31909e-06
-8.55108e-07
8.63651e-07
-1.32779e-06
5.32067e-07
-4.27593e-07
-1.70483e-06
1.59827e-06
2.23926e-06
-1.4678e-07
-4.98045e-05
3.11983e-05
2.21793e-07
6.67649e-07
-4.12237e-05
4.05415e-05
-3.26999e-06
6.61273e-06
4.96649e-06
-9.11373e-06
-8.47642e-06
5.34065e-06
3.30684e-05
-3.08373e-05
-1.11761e-05
9.17203e-06
2.00412e-06
-1.04396e-06
-1.42762e-07
-9.23055e-06
1.04173e-05
1.928e-06
-2.8429e-06
1.24881e-05
-1.15813e-05
3.92656e-06
-5.2169e-06
7.19961e-06
-5.92281e-06
5.85029e-06
-5.70548e-06
8.38759e-06
-8.53241e-06
4.10139e-06
-1.95576e-06
1.41371e-05
-1.62827e-05
4.89364e-06
-1.66348e-05
1.73058e-05
-2.75541e-06
1.46769e-05
-2.45056e-05
9.05939e-07
5.58675e-06
4.26023e-05
-6.68349e-05
2.00708e-06
5.18325e-06
7.20733e-05
-7.40465e-05
1.8883e-05
-1.67488e-05
7.30569e-05
-6.7184e-05
2.76701e-05
-3.27592e-05
2.31948e-05
-1.56057e-05
-1.72481e-06
-6.21822e-06
8.5313e-06
-3.45876e-06
-1.1858e-05
6.35801e-06
9.71906e-07
-2.47974e-06
-1.43337e-05
7.99704e-06
7.39293e-06
-5.457e-06
-2.82996e-05
2.63644e-05
6.47655e-06
-9.00698e-06
-3.55801e-05
3.81105e-05
1.18902e-05
-1.5019e-05
-2.78361e-05
3.09648e-05
1.86615e-05
-2.38194e-05
-2.13541e-05
2.65121e-05
3.1058e-05
-3.90032e-05
-1.27787e-05
2.07362e-05
4.07238e-05
-2.14555e-05
7.61394e-06
-1.05527e-06
1.75179e-05
-3.95013e-05
3.27629e-05
-3.28209e-06
7.26734e-05
-8.05885e-05
2.49431e-05
-2.13772e-05
8.14701e-05
-7.51146e-05
2.72892e-06
-5.24419e-06
-6.80125e-06
3.98293e-06
2.81832e-06
-4.17642e-06
4.80483e-06
-1.05269e-05
9.89851e-06
-3.24135e-06
-9.13524e-08
9.00459e-06
-5.67508e-06
4.16509e-06
-7.4487e-06
3.73316e-06
-5.29475e-07
1.00454e-05
-1.19315e-05
7.98951e-06
-6.10346e-06
1.59763e-05
-2.87232e-05
1.23967e-05
5.01078e-07
2.47336e-05
-3.32832e-05
-1.27229e-05
1.74581e-05
4.33177e-05
-5.15941e-05
-1.92724e-05
1.41728e-05
4.6587e-05
-4.80789e-05
-9.38579e-06
1.10328e-05
5.41175e-05
-6.18001e-05
1.30025e-05
-5.02894e-06
6.16309e-05
-5.03055e-05
3.05142e-05
-9.78055e-06
4.30965e-05
-3.90261e-05
1.09472e-05
-1.53716e-05
3.86227e-05
-3.52342e-05
1.9431e-06
-1.46553e-05
2.13749e-05
-1.89207e-05
-6.89475e-06
-1.53334e-06
3.19548e-05
-3.16344e-05
-2.49484e-05
1.6436e-05
2.48415e-05
-1.83014e-05
-3.67791e-05
2.87471e-05
1.56993e-05
-1.61103e-05
-3.26033e-05
3.09027e-05
1.94383e-05
-2.36602e-05
-3.07945e-05
3.50176e-05
2.89769e-05
-3.21516e-05
-2.43502e-05
2.75216e-05
2.90461e-05
-1.10349e-05
4.65353e-06
-1.53661e-05
4.8544e-07
-3.46564e-07
-9.46276e-08
1.17849e-07
1.1422e-06
-1.08429e-05
6.95211e-06
-7.98022e-07
1.11178e-05
-2.46386e-06
-4.90125e-07
1.41729e-07
-2.05544e-07
-4.14138e-06
4.34693e-06
-5.33058e-06
5.6834e-06
-9.1906e-06
8.83777e-06
-4.69539e-06
7.47609e-07
2.03119e-06
1.91571e-06
4.5039e-06
-9.16581e-06
-3.51517e-06
8.15859e-06
1.35999e-05
-1.90668e-05
2.15914e-06
3.30827e-06
2.88401e-05
-2.93957e-05
-1.51765e-05
2.75909e-05
2.75884e-05
-2.82902e-05
-2.07518e-05
1.97653e-05
2.77663e-05
-1.05655e-05
1.44488e-06
-7.31765e-06
2.10429e-06
-1.99915e-06
-6.87711e-06
9.7937e-08
8.3278e-07
-4.64959e-07
-1.38958e-08
-7.47223e-09
4.86219e-07
-4.82164e-07
2.25885e-07
-1.79366e-07
4.50111e-07
-1.9789e-06
2.19348e-06
-7.7281e-07
3.54717e-06
-5.62305e-06
8.30634e-06
-2.61623e-08
1.67191e-05
-4.55923e-05
5.14436e-06
2.55329e-07
7.78759e-05
-7.19854e-05
-6.68645e-06
-6.3682e-08
6.29327e-05
-5.33201e-05
-1.89802e-05
9.92023e-06
4.46261e-05
-3.88068e-05
-2.86997e-05
2.35352e-05
3.62099e-05
-3.61351e-05
-3.83131e-05
3.82324e-05
3.59373e-05
-3.37674e-05
-2.88247e-05
2.665e-05
2.45599e-05
-2.19273e-06
1.64982e-05
-3.3818e-08
2.54713e-07
-7.96126e-08
-7.17798e-08
5.07259e-08
5.9752e-08
-3.03943e-08
1.24389e-08
-1.65596e-08
4.32097e-07
-1.40255e-06
2.29602e-06
-1.80715e-07
8.13591e-06
-1.16439e-05
3.508e-06
-7.63999e-06
8.61917e-06
-8.44594e-06
7.46676e-06
-6.79969e-06
2.01952e-06
-6.32392e-06
1.11035e-05
3.30394e-06
-8.04437e-06
-1.30853e-05
1.78257e-05
1.30752e-05
-1.87646e-05
-9.374e-06
1.50634e-05
2.57198e-05
-3.38263e-05
-4.00189e-05
4.91884e-05
3.94537e-05
-3.43089e-05
-2.29012e-05
2.66855e-05
9.39591e-06
-4.64307e-07
1.57718e-06
-1.09641e-07
6.25659e-07
-6.38801e-07
-2.9545e-07
3.05756e-07
9.51056e-07
-7.59453e-07
-1.38873e-07
1.11948e-07
4.21356e-07
-3.22086e-07
2.0186e-07
-3.19255e-07
3.21208e-07
-3.47749e-07
3.49291e-07
-3.40879e-07
3.92112e-07
-7.14846e-07
-1.56714e-07
-2.45706e-07
3.91106e-07
1.2721e-08
-4.24649e-07
9.40189e-07
2.21053e-07
-6.17307e-07
-1.658e-07
3.30946e-07
1.04546e-06
-1.17654e-06
4.3097e-07
-4.32865e-07
1.22893e-05
-4.40584e-05
-1.72405e-05
5.43983e-06
4.91468e-05
-4.49833e-05
-3.48426e-05
3.06688e-05
3.8226e-05
-1.68078e-05
-2.01426e-05
1.04903e-05
5.63492e-08
-4.97014e-08
2.57964e-08
-4.18196e-08
7.05776e-08
-6.49534e-08
-2.74958e-09
-1.38366e-08
4.06454e-08
-1.8759e-07
5.48818e-08
-6.97008e-07
3.13356e-07
-1.17455e-07
2.12378e-07
-3.90815e-07
1.38474e-05
-1.30218e-05
-7.93095e-07
-4.92001e-06
6.75719e-06
-6.06396e-06
4.22684e-06
-5.04177e-06
5.47089e-07
-1.60284e-05
2.05231e-05
3.63808e-06
-7.33692e-06
-2.19812e-05
2.56801e-05
1.10989e-05
-1.43039e-05
-1.96555e-05
2.28071e-05
1.45291e-05
-1.04931e-05
-5.0989e-05
4.786e-05
1.6004e-05
-2.97743e-05
-2.98e-05
2.59511e-05
1.46995e-05
-2.77868e-07
7.49724e-08
-5.63104e-07
1.32146e-07
4.25374e-08
-2.6648e-07
8.99952e-08
-1.37932e-07
1.96631e-07
-1.15293e-07
5.50243e-08
-1.69775e-06
8.32891e-07
7.57909e-07
-2.06088e-06
-2.0001e-07
3.42457e-07
2.29499e-07
-3.89956e-07
-6.83657e-07
7.52309e-07
3.25366e-07
-1.89416e-06
-2.95566e-07
7.65388e-07
-9.94316e-07
1.27395e-06
-5.17004e-07
4.12368e-09
-8.22389e-07
9.25015e-07
-3.6717e-08
1.60439e-07
1.00417e-06
-8.6746e-07
9.64627e-08
-7.44637e-07
8.95429e-07
-1.76928e-08
4.85493e-06
-4.84934e-06
-1.32379e-05
1.1208e-07
4.66839e-07
6.26841e-08
1.39449e-06
-1.8288e-07
-2.94002e-08
2.70909e-08
-2.04808e-08
-1.34623e-08
-3.18028e-08
1.21917e-08
-8.40914e-09
2.42656e-08
5.49726e-07
-7.3088e-07
6.91716e-07
-4.70079e-07
7.98896e-07
-1.50977e-08
3.8751e-07
-2.14459e-09
1.29747e-05
-1.73185e-05
4.86277e-06
-3.35227e-06
5.99996e-06
-1.33085e-06
-1.38605e-06
-6.52593e-06
2.51676e-06
-2.4418e-05
2.84272e-05
2.36253e-06
-5.7005e-06
-2.91032e-05
3.22427e-05
7.57029e-06
-9.24732e-06
-2.48895e-05
2.65802e-05
1.01264e-05
-5.35192e-06
-4.42588e-05
4.11026e-05
-8.13339e-07
-4.60897e-06
-3.54791e-05
3.49026e-05
6.48362e-06
-4.97054e-06
-6.32159e-07
1.25886e-06
2.6929e-06
-1.32522e-06
3.39319e-07
-1.4971e-06
-4.37278e-07
6.49545e-07
1.26863e-06
-6.64458e-07
3.41484e-07
-1.14476e-06
1.00836e-06
-1.39323e-06
2.38597e-07
5.12388e-07
2.10098e-06
-2.71736e-06
-1.04161e-06
1.28801e-06
1.69431e-06
-1.85193e-06
-5.69675e-07
-4.01473e-07
-2.90344e-06
4.60962e-06
2.25892e-07
-4.00672e-08
-7.01323e-07
5.05485e-07
2.73649e-12
-6.94047e-09
5.06046e-08
2.15256e-09
1.05484e-08
-1.43505e-08
-4.39913e-09
4.88484e-09
2.60933e-09
1.98808e-09
-7.06954e-09
-4.56211e-10
-2.19146e-09
1.03904e-08
6.69194e-08
-1.06285e-08
-3.47067e-08
1.1844e-08
3.81452e-08
-6.01382e-08
-5.95848e-09
3.61817e-09
-3.45446e-08
3.31423e-08
8.84294e-09
-1.82467e-09
9.99311e-08
-8.34635e-09
3.16092e-09
-3.92212e-09
-4.77001e-10
1.21349e-09
2.48902e-05
-2.82362e-05
3.25639e-06
-1.04866e-05
9.85962e-06
2.46949e-06
-1.07164e-06
-7.21287e-06
4.7256e-06
-2.9524e-05
3.29504e-05
-2.02309e-06
2.82414e-07
-3.55305e-05
3.71558e-05
7.00377e-07
-2.75106e-06
-2.85995e-05
3.00696e-05
6.1172e-06
-8.39951e-06
-3.93771e-05
3.84424e-05
2.6519e-06
3.37227e-06
-4.71867e-05
5.60256e-05
-1.29952e-06
6.81247e-07
-3.42439e-06
5.90284e-06
-5.43426e-07
3.81348e-07
2.42767e-06
-8.16848e-07
1.34668e-08
-1.75319e-08
-3.93034e-09
2.74653e-09
1.13484e-07
-9.99911e-07
1.37539e-06
-5.49485e-08
2.08475e-06
-1.29563e-06
3.13298e-06
-2.38056e-07
2.67638e-07
-1.35396e-07
2.48765e-06
-5.26313e-07
-1.22785e-06
7.16319e-07
-5.28618e-06
-2.71006e-08
-8.01225e-09
-7.86176e-08
-4.17946e-07
5.34532e-07
1.55187e-09
-2.90787e-09
-3.54573e-09
4.87223e-09
2.98759e-09
-1.36979e-09
-2.81933e-09
1.10101e-09
-7.92692e-10
4.22354e-08
4.91745e-09
-6.36794e-08
-8.23397e-08
4.30417e-08
1.46174e-08
-5.38413e-08
-9.00166e-09
3.17658e-08
7.84028e-08
-4.94776e-08
-1.38208e-08
1.20005e-08
-3.4398e-08
3.24456e-08
-3.86798e-09
-1.15217e-08
-1.23924e-08
4.71553e-08
9.89455e-10
-7.80855e-10
-1.48172e-09
1.25586e-09
2.11245e-05
-5.86971e-06
-1.5359e-05
1.67359e-05
-2.22709e-05
-2.23276e-06
7.33157e-06
2.36205e-05
-2.35825e-05
-3.13824e-05
2.24549e-05
1.77769e-05
-1.93401e-05
-2.93503e-05
1.24573e-05
3.01972e-05
-3.13417e-05
-2.59725e-05
2.71726e-05
2.84648e-05
-2.60337e-05
-4.12706e-05
3.89559e-05
2.22669e-05
-1.51771e-05
-4.91733e-05
4.21999e-05
3.94894e-06
2.00184e-06
-1.00746e-05
-6.9134e-07
1.11475e-07
-1.92057e-07
3.17074e-08
4.24529e-08
2.86676e-07
-1.40873e-07
2.23299e-07
-3.1591e-07
-6.85565e-08
6.6116e-08
-1.22612e-10
-1.05181e-08
-5.11596e-08
2.53121e-08
8.88261e-08
-6.84624e-08
9.59075e-09
-1.35075e-07
4.42672e-07
-6.80931e-07
2.94999e-08
1.24459e-07
-4.30746e-07
2.08459e-07
-9.62394e-08
-1.70861e-07
-6.39236e-07
9.01997e-07
1.46049e-07
-5.34931e-09
-4.4522e-09
5.34804e-08
-5.88355e-09
1.38832e-08
7.79556e-10
-8.74348e-09
-1.20268e-07
2.65158e-07
2.28719e-07
-3.8315e-07
-1.67944e-07
2.46999e-08
9.13017e-08
-1.95233e-08
-5.02097e-09
3.48662e-09
2.0237e-09
1.01066e-09
-3.58613e-08
4.73067e-08
-3.6263e-08
2.30077e-08
-3.22642e-08
3.27627e-08
-4.33638e-08
3.95896e-08
-2.39639e-08
1.90893e-09
-4.99704e-09
1.03099e-08
-6.8207e-06
1.49541e-05
-8.07324e-06
1.00911e-05
-2.42976e-06
-7.12217e-06
3.81164e-06
1.87423e-06
-3.92268e-06
2.79338e-07
1.55063e-06
1.28126e-05
-7.56526e-06
-1.02234e-05
4.54126e-07
4.9549e-06
-5.85664e-06
-8.21594e-06
1.13747e-07
1.32706e-05
-1.6556e-05
-3.21374e-05
1.83237e-06
1.15105e-05
3.54537e-07
-2.80955e-05
8.45576e-07
5.0604e-08
-1.00944e-08
7.92544e-10
1.42073e-08
2.72706e-08
-1.10277e-08
-1.24112e-08
3.83195e-09
-1.48231e-09
2.36684e-07
2.17563e-07
-4.79829e-07
-6.74815e-07
3.895e-07
1.60396e-07
-1.11064e-06
-1.13352e-07
1.03393e-07
5.03019e-08
-5.14846e-08
-1.95699e-07
5.98766e-07
3.79125e-07
-4.86019e-07
-8.70964e-08
2.13035e-07
1.30702e-08
-5.2083e-07
-5.66767e-08
3.71728e-07
-8.81623e-07
2.48794e-07
-1.96208e-07
5.40377e-08
-1.43528e-07
1.12632e-07
-1.15921e-07
3.09079e-07
1.14675e-07
-3.02445e-07
-1.72114e-07
1.27983e-08
1.95166e-07
-1.92229e-08
1.04408e-10
-1.00015e-11
1.16745e-10
-1.24673e-12
-1.05503e-11
2.47926e-11
-1.58124e-11
1.17236e-12
-4.96504e-10
1.93546e-08
-8.17943e-09
1.10655e-10
-9.44434e-08
8.5457e-08
-1.11591e-07
1.36834e-07
-1.30063e-08
3.51695e-09
-4.42221e-09
1.14777e-08
-2.02009e-05
2.30047e-05
-3.17239e-06
2.34881e-06
1.78978e-06
-6.23616e-06
8.65909e-06
-6.31093e-07
5.16564e-07
-1.69969e-06
1.79558e-06
-5.59196e-07
5.47814e-07
-4.83088e-07
4.88837e-07
-5.46706e-07
5.99254e-07
-5.3489e-08
-3.32097e-09
-6.41726e-07
1.81821e-06
3.40021e-09
1.94105e-08
-1.21082e-06
1.24175e-07
4.66089e-08
1.95426e-07
-1.94188e-08
9.78883e-09
-2.08526e-08
2.89252e-08
-7.15798e-09
4.05871e-09
-2.46173e-09
3.51635e-09
-3.35923e-07
5.78584e-07
9.25616e-07
-1.08397e-06
-5.71117e-07
5.8808e-07
1.18076e-06
-1.13248e-06
-5.09632e-07
9.77067e-07
2.29459e-07
-2.51381e-07
-1.24385e-06
1.26488e-06
1.20246e-06
-2.40309e-08
-1.52004e-06
1.36132e-06
3.18687e-07
-1.6161e-07
-4.31812e-07
2.80727e-07
-2.97216e-07
2.75221e-07
-2.36406e-07
1.36359e-07
-8.80206e-08
1.18312e-07
-2.92224e-07
2.53418e-07
2.10896e-07
-7.11874e-08
-2.47765e-09
4.63485e-11
2.43499e-09
-2.55756e-10
-7.88411e-14
1.69839e-13
2.4517e-13
3.79465e-15
-8.58492e-14
-3.28238e-13
7.7379e-14
3.63992e-13
1.62995e-09
-3.37854e-10
3.21962e-09
-1.8401e-08
-2.13648e-08
4.93505e-08
-7.43295e-08
4.65305e-08
-2.72311e-08
3.56142e-09
-2.60027e-08
1.09269e-08
-2.25395e-05
2.13753e-05
1.13735e-06
-2.07849e-06
5.56541e-06
-2.6953e-08
-1.40938e-06
-1.10044e-05
7.87457e-06
-6.88081e-06
7.06958e-06
-1.2798e-07
5.82396e-07
-3.49612e-07
-1.06312e-07
-7.63049e-07
1.03926e-06
1.06508e-07
-3.86051e-07
-1.30838e-06
1.39295e-06
-1.03099e-07
1.62816e-08
-2.42082e-06
2.61318e-06
-8.351e-07
9.24996e-07
-2.48878e-06
1.82917e-06
-2.39514e-07
1.13274e-06
-2.4932e-07
2.05532e-07
-4.72586e-09
4.52889e-08
-9.6196e-07
6.5887e-07
1.23317e-06
-6.1839e-07
-2.25381e-07
5.38635e-08
2.11284e-07
-3.74073e-08
-3.98965e-08
5.39864e-08
4.27986e-08
-5.18745e-08
-6.75047e-08
5.11351e-08
7.03484e-09
5.37522e-10
-1.17634e-06
1.5335e-06
1.52147e-07
1.12707e-08
-1.42508e-06
1.10081e-07
-5.20432e-07
5.63097e-07
-1.07942e-08
1.36196e-07
-2.79695e-07
3.50449e-07
-2.59928e-07
1.27602e-09
3.06119e-08
1.13794e-09
3.01237e-12
-1.49697e-11
1.09742e-11
3.36989e-12
5.69574e-13
2.00451e-13
-7.38859e-14
3.43195e-13
-8.20684e-14
5.37492e-11
-6.73888e-11
5.92436e-12
-2.09416e-10
-4.06047e-08
7.70872e-09
-2.04663e-11
5.08426e-08
-4.30074e-08
-2.0456e-08
1.24966e-08
2.6243e-08
-5.05698e-09
-1.59681e-08
2.3703e-08
-2.17912e-05
2.0212e-05
1.19118e-07
1.1773e-06
-4.24224e-07
1.19601e-07
4.06403e-08
4.35593e-07
-2.06127e-07
-8.15887e-07
-1.9111e-09
7.21173e-08
1.34946e-08
3.40512e-07
-4.24165e-08
-1.03265e-07
4.00888e-08
7.53194e-08
-1.77035e-08
-3.01077e-08
2.64031e-08
4.08796e-09
-5.08667e-09
-7.96737e-08
4.79766e-07
-4.18879e-07
1.86213e-08
-1.64701e-06
1.22241e-06
-1.39907e-06
1.97684e-06
4.80043e-09
2.1293e-08
-2.79313e-07
1.22996e-07
-6.72212e-08
5.53546e-09
6.52681e-08
-4.02676e-09
2.88593e-09
-4.44286e-09
3.19522e-08
-2.94839e-08
-1.97278e-08
-2.91113e-07
1.51849e-07
-1.02512e-07
2.40811e-07
-1.40341e-08
8.41749e-08
-5.52656e-08
-7.06895e-09
3.59229e-08
-6.85072e-08
1.87571e-08
2.84192e-08
-2.19285e-08