/*--------------------------------*- C++ -*----------------------------------*\
| =========                 |                                                 |
| \\      /  F ield         | OpenFOAM: The Open Source CFD Toolbox           |
|  \\    /   O peration     | Version:  v1912                                 |
|   \\  /    A nd           | Website:  www.openfoam.com                      |
|    \\/     M anipulation  |                                                 |
\*---------------------------------------------------------------------------*/
FoamFile
{
    version     2.0;
    format      ascii;
    class       volScalarField;
    location    "1";
    object      p;
}
// * * * * * * * * * * * * * * * * * * * * * * * * * * * * * * * * * * * * * //

dimensions      [1 -1 -2 0 0 0 0];


internalField   nonuniform List<scalar> 
9072
(
1041.97
1063.49
1049.26
1028.8
999.871
963.767
920.689
869.614
810.825
748.465
694.033
664.828
664.617
680.557
703.58
724.928
731.697
738.205
729.551
698.891
636.536
588.755
572.082
984.953
1005.8
992.23
970.971
941.866
905.769
862.619
811.357
751.941
687.932
632.65
601.774
601.386
618.162
644.925
668.188
672.531
676.632
666.329
637.144
572.881
523.656
509.952
929.58
949.898
936.331
914.628
885.527
849.185
805.422
753.529
692.798
624.821
562.525
528.096
530.526
553.36
586.296
613.734
619.894
614.127
605.035
573.814
501.705
449.589
444.052
875.345
895.102
881.228
859.401
830.437
793.775
749.167
696.364
633.855
559.117
484.14
444.114
452.061
483.998
524.862
558.296
569.791
556.291
549.169
511.608
416.9
360.782
375.329
821.604
839.988
826.312
805.206
776.344
739.277
693.524
639.694
575.786
491.124
394.072
346.829
366.775
409.58
460.013
499.977
516.658
505.077
501.396
449.279
295.182
242.228
306.409
768.331
784.74
772.037
752.325
723.349
685.567
638.038
582.977
519.315
421.36
288.003
231.433
273.636
330.108
390.489
439.911
459.501
459.819
461.147
393.676
179.036
105.71
242.534
716.407
730.377
719.142
701.253
672.223
632.558
582.186
525.019
470.309
389.38
221.516
157.086
215.498
279.909
316.999
379.247
401.104
413.207
413.749
329.206
111.03
22.7581
190.696
667.105
678.387
668.311
652.56
622.978
580.096
525.183
465.469
451.664
375.878
160.874
92.0688
173.021
233.97
243.065
318.517
343.123
357.437
340.616
216.684
61.6564
-2.71328
161.413
529.726
530.375
516.836
445.066
452.214
414.323
433.564
456.687
427.519
416.969
563.707
465.081
178.022
367.779
356.116
382.519
377.56
370.392
478.322
457.692
466.064
474.864
394.726
397.847
348.423
366.025
407.318
370.991
335.569
412.897
329.563
65.4828
252.226
287.819
319.08
330.52
291.138
414.492
408.162
401.976
424.433
333.769
335.605
277.161
321.218
308.753
290.308
195.157
137.061
132.653
33.6809
110.569
242.703
289.671
291.336
233.382
327.887
389.897
349.799
352.774
277.078
254.316
222.812
263.583
209.449
219.378
119.982
95.0842
77.1251
25.2792
35.1173
186.9
259.754
251.806
187.379
253.725
371.829
319.666
285.282
232.032
213.583
176.862
196.136
141.607
164.423
116.812
89.7695
86.369
17.4288
15.3103
88.2857
195.258
199.936
156.922
204.109
330.57
287.709
230.684
206.289
162.953
124.431
141.051
103.099
112.68
65.77
75.3026
101.482
14.9966
12.7162
25.0944
109.979
163.445
142.135
158.868
279.256
258.505
200.798
189.487
80.4227
38.5863
87.0039
76.9864
50.054
26.4066
53.0294
86.1035
16.2711
12.4108
21.4188
46.8046
150.75
125.707
116.721
231.024
216.235
186.763
164.398
5.2606
-43.3919
24.3755
66.2458
34.872
18.8764
44.1599
55.921
12.6258
12.5047
20.3101
38.035
119.765
99.1242
79.4894
583.422
617.923
607.73
594.291
563.18
511.93
444.611
430.413
393.459
291.733
107.398
40.0174
95.2356
150.49
163.604
241.251
268.687
274.311
225.699
61.0947
19.0623
35.8331
109.625
496.572
531.907
523.638
510.057
477.237
411.632
339.573
275.925
161.034
44.9191
54.5688
54.0608
73.5022
90.4023
72.1777
138.976
157.833
158.999
124.488
28.9215
9.307
9.15557
8.16582
410.866
448.457
444.432
431.992
402.346
337.197
224.036
87.2765
30.4723
35.4595
33.7837
34.6186
55.8789
49.1846
42.8239
63.7018
67.1907
75.2366
55.4461
15.5898
5.81826
5.42744
4.4952
319.124
361.28
360.783
349.794
326.073
266.315
118.547
35.5949
32.6544
29.9657
30.4637
31.3427
34.3235
30.4558
16.9973
19.6866
27.4886
36.0277
11.76
4.33172
4.47774
4.54458
2.61526
229.626
267.072
270.395
260.381
234.93
186.504
54.49
32.7882
30.9049
27.7653
27.7419
29.5833
31.7862
26.4987
9.41555
8.42672
3.75813
6.74013
3.52873
3.88491
3.46958
3.18947
1.85381
144.805
189.382
183.684
172.492
149.078
103.346
18.9352
11.5537
19.7686
15.6143
19.3111
21.811
16.6611
17.609
7.91749
3.01299
2.87122
2.57354
2.56174
2.66378
2.65482
2.04831
1.65023
59.5869
62.2401
72.526
95.7892
77.9905
53.2762
20.3055
9.9765
8.01161
8.67259
6.41907
7.35795
7.76393
7.70727
5.535
2.62404
2.27819
2.31566
2.4474
2.36234
2.04695
1.54477
1.28457
90.9372
-15.2679
0.309897
57.0512
23.928
19.3521
36.6301
13.8656
5.46914
6.40634
6.20377
5.99328
6.62044
6.53939
4.69349
2.09489
1.83672
1.64506
1.29622
1.61619
1.71929
1.19064
1.03003
64.7714
38.652
19.893
5.79226
4.11293
22.3989
10.6964
4.19785
4.02379
4.94255
5.65053
5.59671
6.02451
8.45337
4.44371
0.259495
1.22716
1.51459
1.33259
1.38185
1.317
1.04017
1.00355
34.3716
27.7466
14.6067
-0.42728
-0.153155
3.44984
3.20567
3.64
3.47768
3.03513
3.60374
3.82059
0.895704
5.45677
4.43577
3.54637
2.25734
1.47072
1.32227
1.23379
1.09482
0.765515
1.01049
21.6614
16.4331
13.8581
4.01989
1.11317
-1.51131
0.182811
3.06592
4.01647
2.32878
1.73792
0.0101397
-0.573462
-0.867641
-0.0179038
2.62336
1.56432
1.31263
1.16611
1.04679
0.905535
0.767882
0.861513
28.1202
9.34169
7.3262
0.475912
-2.89537
-5.09003
-5.28733
0.583506
5.25454
2.97085
2.02099
0.186232
-0.881239
-2.94047
-1.24173
1.03462
1.15902
1.06797
0.959717
0.850016
0.73442
0.636499
0.588675
21.8236
10.7479
2.19443
-0.782887
-2.77444
-4.37948
-4.50748
-1.16078
1.40662
1.86062
1.49646
0.991979
0.673177
0.334496
0.38193
0.790037
0.873218
0.828809
0.751139
0.662608
0.57252
0.491753
0.430639
5.16182
1.40284
0.470657
0.109579
-1.81722
-3.41726
-3.36771
-1.2582
0.677733
1.23525
1.16774
0.992468
0.81731
0.673048
0.685789
0.723465
0.681377
0.621304
0.552326
0.476556
0.398618
0.324638
0.259602
3.39137
1.3182
0.324663
-0.385624
-1.89958
-4.044
-4.89704
-3.69355
-2.15388
-1.05955
-0.185346
0.54871
1.08121
1.03827
0.758872
0.54867
0.491293
0.425097
0.360612
0.292451
0.220337
0.148184
0.0801728
8.74061
0.674914
-0.339408
-1.17509
-3.14451
-6.06978
-7.42294
-6.95124
-4.86139
-2.83128
-1.74793
-0.939376
0.886836
1.13622
0.744445
0.358798
0.291335
0.22837
0.173219
0.112372
0.0418625
-0.0328365
-0.105324
9.7803
1.40681
-1.96681
-2.70671
-4.9162
-8.97286
-12.0279
-11.9073
-8.63268
-4.61991
-2.24474
-1.47153
0.286978
1.08123
0.491481
0.118571
0.0622558
0.0208515
-0.00757884
-0.0580266
-0.13294
-0.216805
-0.297094
11.0472
-17.978
-3.4047
-3.80591
-7.52379
-11.8844
-15.3936
-15.2161
-11.2241
-6.25302
-3.06086
-2.1818
-0.688851
0.528451
-0.44165
-0.371699
-0.287417
-0.220364
-0.170473
-0.206751
-0.301872
-0.406846
-0.499063
32.6907
-0.684675
-2.65176
-3.99578
-8.26475
-12.0087
-15.086
-14.9822
-11.4645
-7.6171
-4.896
-4.07023
-3.484
-2.19526
-1.87279
-1.22943
-0.883571
-0.574987
-0.303691
-0.323658
-0.476294
-0.618296
-0.721606
5.61691
10.134
-2.9747
-4.27216
-6.70673
-9.07219
-11.271
-11.69
-9.96184
-7.61506
-5.86564
-5.66787
-6.51597
-6.41642
-3.64995
-2.32952
-1.87168
-1.5573
-1.14168
-0.572525
-0.729145
-0.898355
-0.985413
-23.9006
-14.2923
-11.7262
-4.89182
-4.3583
-4.78982
-6.30778
-7.90549
-7.19192
-6.14453
-5.51157
-5.90316
-7.63571
-6.68062
-4.4292
-3.11423
-2.97139
-3.40997
-2.80106
-1.64828
-1.25188
-1.36203
-1.32241
-9.99265
-9.03987
-4.76736
-2.25347
0.762727
0.89506
-1.61189
-3.33477
-5.12294
-5.90751
-4.75234
-4.65813
-5.27926
-5.00643
-3.83719
-2.96376
-2.92083
-3.39207
-3.12729
-2.86501
-2.50441
-2.09013
-1.76491
7.64525
-5.27142
-5.6377
-3.94918
3.47765
3.13197
-0.120147
-1.69517
-4.56329
-6.29981
-3.70487
-3.87772
-4.19525
-3.95363
-3.35583
-2.59206
-2.52576
-3.00002
-3.36413
-4.05502
-4.4106
-2.8953
-2.28401
6.97357
-4.54574
-5.62526
-2.249
2.61961
0.581796
0.0468347
-0.736658
-2.83336
-3.03351
-3.18368
-3.69938
-3.56881
-3.41757
-3.38791
-2.80442
-2.75568
-3.00616
-3.50941
-4.2824
-4.32619
-3.21024
-2.71646
-1.0704
0.209173
-1.20138
-0.765674
-1.35944
-0.243989
-0.25872
-0.50139
-1.58032
-2.32698
-2.81061
-3.77305
-3.3187
-3.06431
-3.28221
-2.99653
-2.88594
-2.98886
-3.26879
-3.57271
-3.40797
-3.05342
-2.87278
-3.47272
-1.28827
-0.152072
-0.194487
-0.325759
-0.37503
-0.505978
-0.84847
-1.54798
-2.11275
-2.36324
-3.10783
-3.05155
-3.0019
-2.96925
-2.88304
-2.90451
-2.96799
-3.06846
-3.12997
-3.07168
-2.96992
-2.89521
-3.98023
-2.6443
-0.297737
0.139859
-0.339988
-0.499497
-0.714082
-0.990427
-1.44867
-1.88703
-2.19149
-2.54294
-2.79804
-2.9037
-2.8525
-2.88579
-2.9403
-2.99702
-3.04993
-3.07317
-3.05258
-3.0104
-2.97562
-3.61939
-2.19281
-1.74852
0.47636
-0.71249
-0.816247
-0.981041
-1.23956
-1.58467
-1.9339
-2.20965
-2.45697
-2.69121
-2.8124
-2.86457
-2.93157
-2.9978
-3.0544
-3.09626
-3.1165
-3.11475
-3.10315
-3.09506
3.75604
-2.15911
-4.2848
-2.39459
-1.21967
-1.18729
-1.25521
-1.44072
-1.70671
-1.99318
-2.24452
-2.46445
-2.65681
-2.79375
-2.89822
-2.99031
-3.0686
-3.13072
-3.17532
-3.20219
-3.21493
-3.22068
-3.22695
-2.93226
-2.11224
-1.99634
-3.16571
-1.8772
-1.44523
-1.47476
-1.62508
-1.845
-2.0834
-2.30338
-2.50183
-2.67937
-2.82967
-2.95749
-3.06648
-3.15596
-3.22583
-3.27731
-3.31281
-3.33647
-3.35355
-3.36874
-3.26279
-2.79479
-2.63558
-2.36311
-1.58264
-1.59592
-1.6548
-1.80016
-1.9951
-2.20026
-2.39098
-2.56852
-2.73937
-2.90059
-3.04468
-3.16649
-3.26495
-3.34175
-3.39978
-3.44254
-3.47416
-3.49892
-3.5205
-1.29684
-2.26994
-2.39514
-2.36842
-1.83415
-1.78748
-1.85357
-1.9991
-2.18264
-2.36298
-2.5168
-2.66451
-2.8292
-3.00506
-3.16504
-3.29625
-3.39997
-3.48052
-3.54235
-3.58955
-3.62605
-3.65542
-3.68059
-2.57242
-2.4066
-2.4066
-2.41639
-2.03617
-2.02988
-2.10718
-2.27165
-2.4656
-2.6394
-2.74185
-2.82587
-2.96485
-3.15316
-3.32831
-3.46175
-3.56379
-3.64285
-3.70447
-3.75277
-3.79118
-3.82261
-3.84936
-3.26655
-2.47884
-2.53299
-2.37758
-2.35957
-2.35505
-2.458
-2.67003
-2.92951
-3.23343
-3.45956
-3.45706
-3.30004
-3.38117
-3.5485
-3.6664
-3.75599
-3.82732
-3.88466
-3.93095
-3.9687
-4.00005
-4.02676
-3.72266
-2.81279
-2.90217
-2.97612
-2.7977
-2.78924
-2.92395
-3.22322
-3.60101
-4.01154
-4.20802
-4.08768
-3.85191
-3.73589
-3.83701
-3.90987
-3.97532
-4.03284
-4.08201
-4.12331
-4.15789
-4.1871
-4.2122
-2.49157
-3.38579
-3.55625
-3.453
-3.31722
-3.33262
-3.55393
-3.91557
-4.19539
-4.3686
-4.39291
-4.38363
-4.25767
-4.17889
-4.14878
-4.17872
-4.21888
-4.25911
-4.29628
-4.32919
-4.35785
-4.38279
-4.4047
-4.18538
-4.32039
-4.15801
-4.02796
-3.9047
-3.9789
-4.28266
-4.60542
-4.75704
-4.77207
-4.7312
-4.7495
-4.64647
-4.48083
-4.46722
-4.46769
-4.48289
-4.50323
-4.52498
-4.54642
-4.56674
-4.5856
-4.60296
-8.23332
-6.62802
-4.24728
-4.50951
-4.55312
-4.68011
-5.02914
-5.32448
-5.55745
-5.6638
-5.3236
-5.17624
-5.04984
-4.8847
-4.81107
-4.78623
-4.76572
-4.76013
-4.76323
-4.77122
-4.78177
-4.79345
-4.8054
-9.29123
-6.9832
-3.74505
-5.26321
-5.38889
-5.39113
-5.68551
-6.01587
-6.52959
-7.08495
-6.23392
-5.71791
-5.48205
-5.31875
-5.25303
-5.13543
-5.05715
-5.0206
-5.00424
-4.9988
-4.99963
-5.00402
-5.01032
-7.86127
-5.58338
-4.11815
-6.07269
-6.41864
-6.04945
-6.15221
-6.44144
-6.89927
-7.28101
-6.53553
-6.05765
-5.82203
-5.67954
-5.6616
-5.4626
-5.3252
-5.27038
-5.24024
-5.22448
-5.21733
-5.21532
-5.21637
-6.83567
-3.42955
-6.24618
-7.66552
-7.08925
-6.4745
-6.37094
-6.5723
-6.65381
-6.65322
-6.52008
-6.28982
-6.09645
-5.93541
-5.83626
-5.66609
-5.55275
-5.4985
-5.46488
-5.44452
-5.4325
-5.42576
-5.4224
-8.14055
-6.07933
-21.6431
-10.4636
-8.61205
-6.46613
-6.32594
-6.72239
-6.81353
-6.76078
-6.66868
-6.5161
-6.34735
-6.1597
-5.94643
-5.80063
-5.74733
-5.70512
-5.67627
-5.65634
-5.64243
-5.6327
-5.62594
217.033
286.804
292.513
254.187
3.94228
12.5751
28.1919
64.0866
2.80085
2.82911
2.83622
3.46446
2.33015
2.46788
2.44681
2.39841
2.11562
2.13049
2.03004
1.93141
1.51465
1.54431
1.55783
1.56442
1.12857
1.14418
1.23045
1.31665
0.98522
1.00766
1.04787
1.13547
0.991808
1.00842
1.02511
1.04364
1.01296
1.00162
0.977522
0.929419
0.832294
0.778265
0.734571
0.717334
0.563136
0.550805
0.535879
0.517598
0.389229
0.36806
0.346829
0.324985
0.210056
0.184589
0.159721
0.135112
0.0258185
-0.00226317
-0.0294244
-0.0558339
-0.163786
-0.193858
-0.222688
-0.250366
-0.360151
-0.392017
-0.422207
-0.450846
-0.566576
-0.599682
-0.630602
-0.659676
-0.788947
-0.820904
-0.850578
-0.878702
-1.03519
-1.05894
-1.08238
-1.10678
-1.31215
-1.3116
-1.318
-1.33373
-1.62586
-1.57283
-1.53865
-1.53348
-2.01457
-1.89232
-1.80645
-1.78957
-2.57379
-2.5424
-2.46883
-2.41137
-2.91601
-3.00855
-2.98567
-2.89698
-2.91039
-2.95319
-2.97237
-2.94415
-2.9686
-2.97151
-2.97323
-2.96875
-3.09728
-3.10019
-3.10245
-3.10358
-3.23693
-3.24411
-3.25238
-3.26031
-3.38329
-3.3924
-3.40231
-3.41172
-3.53863
-3.54865
-3.5589
-3.56947
-3.70052
-3.71082
-3.72075
-3.73057
-3.86993
-3.88043
-3.89045
-3.90014
-4.04715
-4.05748
-4.06732
-4.07675
-4.23143
-4.24117
-4.25044
-4.2593
-4.42172
-4.43039
-4.43867
-4.44659
-4.61687
-4.62405
-4.63096
-4.63761
-4.81558
-4.82099
-4.82628
-4.83142
-5.01655
-5.02007
-5.0236
-5.02713
-5.21874
-5.22036
-5.22214
-5.22403
-5.4213
-5.42115
-5.42124
-5.42153
-5.62186
-5.62014
-5.61872
-5.61756
178.723
140.723
141.375
104.666
-33.6126
-56.4146
-37.0709
52.4337
27.932
17.4121
19.5993
14.5626
9.39014
13.2343
21.0781
31.6988
88.4885
75.9989
48.2752
18.5399
7.72185
17.3697
21.6477
-50.5889
-66.801
-60.7536
-15.3693
10.3187
10.438
10.9951
7.91322
5.59904
10.9081
18.3763
57.3529
65.2592
27.612
13.1085
2.67461
4.06243
5.76942
11.1327
14.3071
-24.7624
-20.662
0.0467374
14.751
9.53419
7.91628
5.47235
4.40247
2.76657
17.5847
29.7422
18.5749
4.78292
3.87408
2.29661
1.81415
6.33403
6.42925
7.42721
-6.82429
16.9066
10.4775
8.70372
8.59949
5.69647
3.56236
3.604
2.81894
2.46287
2.7223
4.24363
4.03671
3.30957
1.85435
1.52016
0.247732
5.59518
3.6561
4.22877
13.4127
14.8035
9.33067
6.64857
-0.00531248
2.22193
2.44197
2.10898
1.65023
2.12522
2.74054
2.79313
2.51242
1.55553
1.42818
2.70539
1.2056
-18.6818
-6.16089
3.66946
13.7834
8.38367
4.34785
2.82492
2.58689
1.31962
1.12256
1.02063
1.45213
1.77869
2.33843
2.47905
1.34206
1.26667
1.14511
0.917655
10.7685
17.8313
4.52804
6.34328
3.01198
2.68165
2.98119
2.95677
0.936168
0.799653
0.77817
0.952459
1.12296
1.52406
2.01815
1.18979
1.13921
1.05095
0.91658
0.730853
0.191668
0.638216
1.77867
2.34226
2.3917
2.72557
2.35624
-0.460434
0.821253
0.754288
0.726913
0.764853
1.11362
1.58028
1.0504
0.991253
0.924972
0.863667
0.730511
0.458447
0.492873
0.973777
1.31107
1.53366
-1.38993
-3.34837
-1.49186
0.323079
0.351204
0.373121
0.382344
0.265666
0.922052
0.89049
0.820689
0.74929
0.678731
0.573867
0.460382
0.524976
0.781909
0.80138
0.619701
-0.660796
-1.44875
-0.917451
-0.358159
-0.206393
-0.0401241
0.1188
0.158584
0.378084
0.691567
0.629336
0.561542
0.488946
0.409418
0.376569
0.378722
0.399069
0.0524941
-0.199722
-0.22364
-0.693139
-0.944639
-0.840284
-0.6478
-0.464584
-0.257963
0.023308
0.118253
0.489285
0.431885
0.368179
0.298295
0.214561
0.153015
0.117583
0.0855261
-0.134387
-0.274213
-0.16767
-0.679696
-1.34407
-1.4767
-1.19907
-0.825277
-0.686105
-0.171638
-0.0544583
0.294444
0.236495
0.174336
0.106641
0.0230343
-0.0739538
-0.143152
-0.26939
-0.690313
-0.759019
-0.631591
-1.04335
-1.78252
-2.07315
-1.78946
-1.13787
-0.896812
-0.495607
-0.263344
0.102173
0.0433428
-0.0168102
-0.0789783
-0.148823
-0.239189
-0.367392
-0.583316
-1.50337
-1.26492
-1.0649
-1.32004
-1.91306
-2.20495
-1.94077
-1.30465
-1.01545
-0.68595
-0.458159
-0.0903805
-0.149403
-0.206725
-0.262523
-0.319234
-0.387977
-0.498749
-0.694862
-1.45674
-1.2756
-1.20543
-1.3139
-1.63293
-1.8369
-1.68332
-1.28379
-1.04767
-0.795409
-0.65498
-0.28597
-0.344721
-0.399167
-0.449383
-0.496534
-0.546608
-0.61831
-0.741348
-1.00924
-1.1129
-1.08788
-1.11084
-1.2836
-1.39804
-1.34903
-1.16007
-0.956371
-0.872553
-0.874377
-0.487194
-0.545601
-0.59797
-0.64456
-0.68613
-0.724092
-0.764754
-0.805727
-0.722687
-0.517615
-0.7458
-1.04148
-1.21488
-1.22106
-1.15913
-1.02446
-0.829905
-1.09341
-1.3863
-0.696314
-0.754489
-0.805872
-0.851741
-0.894041
-0.934251
-0.959185
-0.991803
-0.87231
-0.613539
-0.825583
-1.25528
-1.34304
-1.23694
-1.14225
-0.952964
-0.921459
-1.27001
-1.67247
-0.914711
-0.97286
-1.02422
-1.07145
-1.12226
-1.17173
-1.27713
-1.43669
-1.42733
-1.44939
-1.59764
-1.61527
-1.39483
-1.26998
-1.31914
-1.25805
-1.47616
-1.61286
-1.65792
-1.14111
-1.20148
-1.25292
-1.29969
-1.34797
-1.4175
-1.58524
-1.6736
-1.75005
-2.134
-2.52036
-2.10092
-1.55512
-1.38808
-1.64365
-1.73347
-2.1032
-2.02349
-1.78658
-1.36793
-1.44346
-1.49233
-1.53539
-1.55527
-1.70103
-1.75643
-1.8253
-1.94256
-2.45617
-2.77144
-2.33721
-1.83827
-1.67748
-1.91867
-2.02846
-2.34755
-2.28425
-2.03843
-1.58067
-1.7212
-1.74749
-1.78502
-1.84088
-1.92254
-1.92109
-1.99369
-2.08472
-2.3919
-2.45614
-2.22219
-2.016
-1.94865
-2.0235
-2.16202
-2.51651
-2.46618
-2.1933
-1.93301
-2.12867
-2.01903
-2.04262
-2.15116
-2.24734
-2.23745
-2.16895
-2.20468
-2.32263
-2.31191
-2.1771
-2.13018
-2.12126
-2.09276
-2.21173
-2.47796
-2.50972
-2.20868
-2.47437
-2.42219
-2.24159
-2.27942
-2.36575
-2.52307
-2.52021
-2.35388
-2.35108
-2.36939
-2.3433
-2.25421
-2.21942
-2.2628
-2.17346
-2.25785
-2.54608
-2.55209
-2.16918
-2.75635
-2.50123
-2.33482
-2.44309
-2.5172
-2.62291
-2.58844
-2.52085
-2.51369
-2.50812
-2.48403
-2.4053
-2.34461
-2.32107
-2.32335
-2.45912
-2.70939
-2.61157
-2.23744
-2.86798
-2.7439
-2.65601
-2.58026
-2.66111
-2.65976
-2.655
-2.6736
-2.68364
-2.68206
-2.67421
-2.66343
-2.64877
-2.65409
-2.67164
-2.82197
-3.05607
-2.89119
-2.55842
-2.95671
-2.92196
-2.91194
-2.90743
-2.88917
-2.84028
-2.85321
-2.85832
-2.86338
-2.86364
-2.86111
-2.85887
-2.86264
-2.87854
-2.91488
-3.07196
-3.25344
-3.11965
-2.92164
-3.10106
-3.12143
-3.15393
-3.10559
-3.09682
-3.08621
-3.05343
-3.0459
-3.04742
-3.04872
-3.04971
-3.05252
-3.06043
-3.07788
-3.11139
-3.22154
-3.32587
-3.24659
-3.22193
-3.26542
-3.28985
-3.31838
-3.30965
-3.31458
-3.29908
-3.25139
-3.2316
-3.23301
-3.23514
-3.23787
-3.24255
-3.25095
-3.26487
-3.28495
-3.32249
-3.34451
-3.32669
-3.39022
-3.42266
-3.44758
-3.47882
-3.51818
-3.55162
-3.53324
-3.46873
-3.42077
-3.42065
-3.42219
-3.42506
-3.42976
-3.43703
-3.44714
-3.45891
-3.46933
-3.46672
-3.46957
-3.52044
-3.58403
-3.61518
-3.64984
-3.69571
-3.72379
-3.69879
-3.65264
-3.61468
-3.60951
-3.60924
-3.61121
-3.61508
-3.62084
-3.6282
-3.63617
-3.64296
-3.64787
-3.65735
-3.68261
-3.74424
-3.77283
-3.80396
-3.83452
-3.84876
-3.83794
-3.81848
-3.80416
-3.7972
-3.79523
-3.79617
-3.79906
-3.8035
-3.80906
-3.81514
-3.82115
-3.82798
-3.83766
-3.85412
-3.91286
-3.93533
-3.95791
-3.97791
-3.98998
-3.99141
-3.98897
-3.98491
-3.98063
-3.97911
-3.97974
-3.98197
-3.98543
-3.98978
-3.99471
-4.00006
-4.00645
-4.0146
-4.02665
-4.08891
-4.10918
-4.12806
-4.14398
-4.15493
-4.15994
-4.16273
-4.1626
-4.16156
-4.16129
-4.16213
-4.16401
-4.16679
-4.17026
-4.17425
-4.17869
-4.1838
-4.18967
-4.19667
-4.27061
-4.28895
-4.30535
-4.31905
-4.32912
-4.33542
-4.33956
-4.34133
-4.342
-4.34265
-4.34375
-4.34544
-4.34771
-4.35047
-4.3536
-4.35703
-4.36067
-4.3643
-4.36704
-4.45666
-4.47282
-4.487
-4.49884
-4.50792
-4.51427
-4.51858
-4.52107
-4.52257
-4.52373
-4.52497
-4.52648
-4.52833
-4.53046
-4.53282
-4.53526
-4.53762
-4.53949
-4.53961
-4.64609
-4.65968
-4.67156
-4.6815
-4.68932
-4.69507
-4.69911
-4.70175
-4.70352
-4.70485
-4.70606
-4.70735
-4.70879
-4.71037
-4.71203
-4.71365
-4.71501
-4.71574
-4.71465
-4.83805
-4.84877
-4.8582
-4.86614
-4.87251
-4.87733
-4.88081
-4.88322
-4.88489
-4.88613
-4.88718
-4.88817
-4.88921
-4.89029
-4.89136
-4.89231
-4.89297
-4.89306
-4.89173
-5.03176
-5.03944
-5.04631
-5.05218
-5.05696
-5.06065
-5.06337
-5.06529
-5.06664
-5.0676
-5.06835
-5.069
-5.06963
-5.07024
-5.0708
-5.07124
-5.07142
-5.07119
-5.07009
-5.22664
-5.23122
-5.23551
-5.23927
-5.24239
-5.24484
-5.24665
-5.24792
-5.24878
-5.24933
-5.24969
-5.24995
-5.25016
-5.25033
-5.25045
-5.25047
-5.25032
-5.24992
-5.2491
-5.42213
-5.42363
-5.42533
-5.42699
-5.42844
-5.42959
-5.43042
-5.43095
-5.43121
-5.43126
-5.43118
-5.43101
-5.43079
-5.43054
-5.43026
-5.42992
-5.4295
-5.42899
-5.4284
-5.61634
-5.61497
-5.61426
-5.61395
-5.61382
-5.61373
-5.61359
-5.61335
-5.61299
-5.61253
-5.61199
-5.61138
-5.61075
-5.61011
-5.60947
-5.60883
-5.60817
-5.60753
-5.607
1068.57
1056.84
1040.2
1015.29
982.658
943.163
896.191
841.057
779.583
719.131
675.713
661.062
672.134
690.871
715.512
731.039
728.785
737.588
719.348
668.216
608.651
577.109
571.155
1010.54
999.539
982.62
957.339
924.651
885.149
838.041
782.592
719.985
657.924
613.624
597.847
608.932
630.147
658.348
673.967
669.352
674.089
658.468
606.126
543.531
513.616
509.526
954.497
943.855
926.56
900.967
868.263
828.268
780.541
724.293
659.308
591.512
540.826
525.219
540.562
568.966
601.964
621.354
614.685
609.044
596.181
540.34
468.487
443.685
444.909
899.818
888.766
871.411
845.799
813.119
772.46
723.835
666.527
597.903
519.719
457.729
443.273
466.436
503.952
543.665
568.626
563.583
552.018
537.419
469.169
375.627
366.303
378.967
845.618
833.346
816.997
791.714
758.969
717.435
667.6
609.524
536.573
441.376
360.425
351.253
386.997
434.328
483.007
511.546
511.725
505.27
486.735
381.022
241.158
279.638
314.018
791.566
777.888
763.67
738.966
705.974
662.876
611.276
553.311
476.381
355.734
243.599
246.066
302.235
359.418
419.852
451.922
460.616
463.064
442.818
302.539
94.4857
187.142
254.543
738.332
723.253
712.123
688.021
653.796
608.512
553.802
498.225
437.007
309.901
167.854
180.789
250.926
294.047
354.948
392.104
407.571
417.906
387.004
235.14
12.8099
116.305
208.216
687.138
670.306
662.995
639.356
603.239
554.284
492.456
458.044
426.953
277.915
97.9809
132.154
212.137
235.565
290.146
332.859
351.126
357.826
291.896
140.186
-10.9221
89.6142
172.71
535.141
546.683
475.354
452.041
426.135
419.455
454.526
444.996
413.324
461.205
616.458
227.098
276.274
383.638
341.786
388.058
375.494
413.457
465.567
454.642
493.635
429.21
396.593
370.659
344.239
401.372
388.242
354.977
346.083
488
104.435
132.766
317.968
261.053
352.83
300.03
338.146
401.929
380.916
433.215
373.774
337.25
302.948
291.514
336.094
298.882
263.185
133.059
209.598
52.695
39.7618
209.238
243.069
342.137
244.286
263.152
347.008
365.325
356.856
307.958
269.398
228.421
241.674
240.394
212.73
175.404
99.7147
96.2933
45.147
20.9015
112.817
212.871
307.643
201.838
207.08
277.743
353.418
297.347
259.336
234.963
186.27
186.882
168.203
148.915
142.507
95.6883
98.2512
32.4813
15.9132
29.0009
141.708
241.137
172.115
168.621
224.981
329.487
243.718
223.339
186.338
132.481
133.515
124.455
104.238
122.459
56.8521
103.549
21.3122
12.9645
15.9804
59.0455
175.93
157.509
136.638
176.929
283.414
215.947
199.084
144.768
26.8828
56.3438
98.9102
69.175
32.2584
22.4514
87.8192
23.0248
12.2027
15.3244
25.4741
137.462
140.855
110.455
117.341
226.829
198.42
182.993
102.59
-32.6868
-32.7076
61.014
58.3203
18.901
19.3775
61.0433
22.2952
12.1953
15.0546
24.1202
106.118
111.728
86.7408
88.7414
625.763
606.733
604.149
580.678
540.955
477.186
432.473
417.604
350.136
210.435
36.9669
62.7038
127.141
149.662
208
258.054
274.518
263.161
142.793
29.708
20.7014
78.6379
145.907
536.44
526.747
521.257
495.801
451.323
365.74
311.962
228.596
85.5719
50.7075
52.6915
60.0334
86.5921
74.2414
110.986
150.603
161.136
149.113
80.3384
11.2202
7.94653
21.0529
3.70383
452.471
445.264
441.86
418.939
378.13
279.805
168.488
36.2857
37.0018
33.9478
34.0808
39.418
62.6507
47.697
52.4872
66.429
69.904
75.9453
21.3204
4.55683
5.87406
4.94871
3.98547
363.861
360.038
358.328
338.485
311.308
187.464
55.6917
33.7446
31.212
29.2689
31.2885
32.3713
35.5176
23.2021
15.7916
25.6757
35.3787
29.7551
3.96391
4.37327
4.73164
3.89251
1.86028
267.14
268.64
268.149
249.266
219.237
111.413
30.7578
31.9521
29.1879
26.7869
29.118
29.8755
31.9225
12.7623
10.4578
4.01136
4.20946
5.65665
3.56735
3.67454
3.55844
2.41802
1.96725
189.959
185.485
180.859
161.749
131.438
69.2977
8.90928
18.7985
19.5041
15.2612
21.3737
19.184
17.6097
6.87324
4.16557
2.99944
2.6654
2.52029
2.69761
2.66482
2.35283
1.82702
1.53897
78.4534
60.3924
90.4886
88.65
69.0831
37.8756
11.5748
9.37998
8.2358
8.05218
6.89243
7.52054
9.16432
6.08542
2.9672
2.43894
2.24541
2.43506
2.42014
2.18278
1.74135
1.43347
1.16435
17.3619
-20.6003
37.065
47.2789
19.0419
23.0134
33.6841
5.68398
5.57021
6.85729
5.84737
6.31057
5.9153
6.28867
2.21006
1.87911
1.81441
1.36976
1.53608
1.66986
1.49988
1.05791
0.989831
59.5489
28.6
11.4182
1.9883
11.9271
21.4219
4.65844
4.04372
4.21071
5.56416
5.52192
5.7818
7.47359
7.15432
1.19983
0.785564
1.55316
1.39047
1.37077
1.3542
1.20408
1.00338
0.994844
38.6402
22.7808
4.91018
-1.36275
1.75784
4.32715
3.35587
3.69888
3.34
3.21391
4.19308
1.95398
3.3645
6.16587
3.11588
3.90316
1.57653
1.39426
1.27671
1.21093
0.809589
0.921256
1.02163
19.9295
14.9598
6.14664
2.58625
-0.641326
-0.936758
1.51275
3.77879
3.67576
2.024
1.03062
-0.716823
-0.319431
-1.39136
1.32842
2.35486
1.3855
1.23521
1.10558
0.980672
0.818128
0.815668
0.855875
10.2063
6.11875
5.50795
-1.45408
-4.21223
-5.47657
-4.35758
4.27387
3.03889
2.63893
1.17957
-0.443801
-1.66231
-2.52455
-0.00914646
1.17044
1.12033
1.01393
0.905141
0.792601
0.679984
0.607741
0.573254
15.516
5.43871
0.480951
-1.79231
-3.68259
-4.755
-3.37498
0.862617
1.82431
1.73942
1.20965
0.857924
0.392623
0.216546
0.728047
0.857397
0.857692
0.792241
0.707531
0.617242
0.530094
0.458599
0.406042
6.07663
0.47148
0.409613
-0.69903
-2.8586
-3.60466
-2.58076
-0.0648962
1.08558
1.23739
1.06636
0.915304
0.734456
0.674148
0.723103
0.706677
0.652176
0.587946
0.515026
0.437511
0.360723
0.290897
0.230398
2.37272
0.443514
0.0809829
-1.01221
-3.06158
-4.77829
-4.41845
-2.93649
-1.51212
-0.632977
0.228184
0.9283
1.07135
0.914378
0.627113
0.526701
0.457563
0.393082
0.32714
0.2567
0.183962
0.113493
0.0482898
-0.428862
-0.107431
-0.697665
-1.86292
-4.76555
-6.92114
-7.44013
-6.02262
-3.72598
-2.20213
-1.4162
0.0174566
1.1566
0.997339
0.493786
0.318851
0.259102
0.200665
0.144075
0.0780968
0.00458012
-0.0696412
-0.139623
0.610245
-2.23286
-2.40562
-3.3926
-7.07888
-10.7682
-12.3818
-10.5778
-6.49543
-3.20621
-1.74243
-0.929397
1.17157
0.839217
0.2343
0.0846317
0.0383957
0.00779424
-0.0291704
-0.0932893
-0.174742
-0.257827
-0.334303
-1.06417
-4.66209
-3.48175
-5.18276
-9.68171
-14.0181
-15.8065
-13.6089
-8.57722
-4.40913
-2.39135
-1.71589
0.789195
-0.185396
-0.457718
-0.315981
-0.256898
-0.187409
-0.177914
-0.250456
-0.355226
-0.454959
-0.53934
0.0749712
-1.19021
-3.15382
-6.01965
-10.0636
-13.9043
-15.4986
-13.5283
-9.36978
-6.1628
-4.2153
-4.14161
-2.64311
-2.0561
-1.55162
-1.03272
-0.738502
-0.406516
-0.286145
-0.395908
-0.552034
-0.674271
-0.762322
9.02201
-1.69732
-3.7216
-5.42285
-7.84782
-10.3321
-11.7649
-11.0235
-8.82513
-6.5415
-5.65233
-5.88305
-7.34612
-4.77349
-2.83411
-2.03635
-1.74313
-1.38847
-0.771734
-0.612877
-0.829133
-0.947506
-1.01574
-35.1231
-7.52721
-7.48116
-4.22349
-4.49865
-5.43088
-7.23391
-7.89007
-6.62397
-5.77022
-5.53819
-6.56327
-8.01271
-5.61253
-3.60993
-2.89177
-3.3118
-3.07118
-2.39918
-1.25582
-1.3461
-1.33324
-1.31558
-32.0333
-5.07094
-2.98593
-0.626083
1.29096
-0.235767
-2.72144
-4.19383
-5.73723
-5.64663
-4.30702
-5.03882
-5.29233
-4.47378
-3.33229
-2.80445
-3.24466
-3.27525
-3.00667
-2.68398
-2.28127
-1.87541
-1.6767
-8.11993
-4.96823
-6.12242
2.50918
3.68583
1.05463
-1.00144
-2.97492
-5.93117
-5.76969
-3.61205
-4.1039
-4.13429
-3.69246
-2.95475
-2.43732
-2.75502
-3.19824
-3.58323
-4.63418
-3.61038
-2.51256
-2.11559
-8.69516
-4.87574
-6.31694
0.458036
2.16606
0.229915
-0.254242
-1.46791
-3.04829
-3.12709
-3.45787
-3.71124
-3.45249
-3.44055
-3.10995
-2.72495
-2.84716
-3.23399
-3.81976
-4.69175
-3.71322
-2.91017
-2.60424
1.05546
-1.77041
-1.23961
-0.339402
-0.406625
-0.178481
-0.379228
-0.77094
-2.10375
-2.50113
-3.49044
-3.42758
-3.10909
-3.19011
-3.21179
-2.90101
-2.9129
-3.10864
-3.44828
-3.55651
-3.20527
-2.94248
-2.86133
-2.3993
0.540221
-0.137873
-0.30286
-0.431716
-0.418141
-0.651903
-1.13566
-1.90018
-2.22561
-2.79567
-3.20939
-2.97723
-2.99366
-2.89317
-2.88165
-2.93074
-3.0153
-3.11243
-3.1132
-3.02066
-2.92488
-2.88929
-4.63753
-0.322556
-0.118849
0.378356
-0.56119
-0.609554
-0.839652
-1.19473
-1.70763
-2.02125
-2.37529
-2.65095
-2.91203
-2.85665
-2.86551
-2.91298
-2.96844
-3.02515
-3.06705
-3.06747
-3.03237
-2.99034
-2.96837
-4.2267
-0.959561
1.06347
-0.369953
-0.789259
-0.886605
-1.0955
-1.40649
-1.76831
-2.08115
-2.33529
-2.57875
-2.77138
-2.83694
-2.89711
-2.9656
-3.02755
-3.07764
-3.10935
-3.11772
-3.10931
-3.09791
-3.09536
-2.69227
-2.71744
-2.59164
-1.85631
-1.16073
-1.202
-1.33487
-1.56705
-1.85195
-2.12415
-2.35682
-2.56608
-2.73219
-2.8476
-2.94581
-3.03136
-3.10177
-3.15528
-3.19086
-3.20993
-3.21818
-3.22334
-3.23205
-1.52463
-2.41584
-2.31577
-3.18242
-1.4893
-1.43951
-1.53743
-1.72954
-1.96499
-2.19645
-2.40492
-2.59374
-2.75785
-2.89597
-3.01436
-3.1137
-3.1933
-3.25375
-3.29684
-3.32579
-3.34551
-3.36115
-3.37675
-4.00891
-2.72144
-2.45696
-2.13098
-1.59871
-1.61253
-1.71898
-1.89396
-2.09859
-2.29788
-2.4808
-2.65478
-2.82163
-2.97521
-3.10852
-3.21857
-3.3059
-3.37291
-3.42282
-3.45947
-3.48714
-3.50992
-3.53091
-1.38299
-2.49912
-2.45341
-2.12172
-1.79055
-1.8085
-1.91882
-2.08886
-2.27544
-2.44292
-2.58929
-2.74446
-2.91724
-3.08842
-3.23429
-3.35129
-3.44286
-3.51352
-3.56753
-3.6089
-3.64142
-3.66837
-3.69226
-1.76055
-2.48386
-2.47966
-2.04153
-2.01217
-2.05278
-2.18127
-2.36889
-2.55755
-2.70133
-2.77715
-2.88913
-3.05439
-3.24636
-3.39965
-3.51608
-3.6058
-3.67556
-3.73006
-3.77301
-3.80761
-3.83646
-3.86147
-2.86419
-2.38542
-2.55803
-2.44099
-2.34537
-2.38836
-2.55313
-2.79836
-3.07244
-3.37644
-3.48728
-3.37497
-3.30364
-3.47235
-3.61193
-3.71388
-3.79362
-3.85754
-3.90902
-3.95075
-3.98505
-4.0139
-4.03879
-3.58315
-2.78795
-3.11145
-2.89361
-2.7922
-2.83825
-3.05355
-3.40968
-3.80601
-4.16353
-4.16838
-3.97824
-3.75682
-3.79511
-3.87399
-3.94367
-4.00509