/*--------------------------------*- C++ -*----------------------------------*\
| =========                 |                                                 |
| \\      /  F ield         | OpenFOAM: The Open Source CFD Toolbox           |
|  \\    /   O peration     | Version:  v1912                                 |
|   \\  /    A nd           | Website:  www.openfoam.com                      |
|    \\/     M anipulation  |                                                 |
\*---------------------------------------------------------------------------*/
FoamFile
{
    version     2.0;
    format      ascii;
    class       volScalarField;
    location    "1";
    object      p_rgh;
}
// * * * * * * * * * * * * * * * * * * * * * * * * * * * * * * * * * * * * * //

dimensions      [1 -1 -2 0 0 0 0];


internalField   nonuniform List<scalar> 
9072
(
1086.11
1078.21
1063.97
1043.51
1014.59
978.481
935.404
884.329
825.54
763.177
708.628
679.41
678.925
695.204
718.295
739.642
746.411
752.891
744.252
713.601
651.25
603.469
586.796
1087.96
1079.37
1065.8
1044.54
1015.44
979.342
936.192
884.93
825.515
761.506
704.523
672.654
672.3
691.726
718.498
741.761
745.651
750.151
738.942
710.717
646.454
597.223
583.523
1091.44
1082.33
1068.76
1047.06
1017.96
981.617
937.854
885.961
825.23
757.253
694.957
660.528
662.862
685.098
718.728
746.166
749.569
746.329
729.627
706.246
634.137
582.021
576.484
1096.07
1086.39
1072.52
1050.69
1021.73
985.065
940.457
887.655
825.146
750.407
675.431
635.405
643.352
675.288
716.149
749.586
757.495
746.757
729.374
702.899
608.19
552.073
566.619
1101.18
1090.14
1076.46
1055.36
1026.49
989.427
943.674
889.844
825.935
741.273
644.222
596.979
616.924
659.73
710.163
750.127
751.622
724.006
751.54
699.405
536.459
492.301
556.559
1106.77
1093.75
1079.68
1061.33
1032.36
994.575
947.046
891.986
828.317
725.542
540.708
514.904
582.644
639.117
699.498
748.92
760.513
730.041
770.138
689.44
477.265
399.402
551.542
1113.7
1098.23
1085.45
1068.57
1040.09
1000.43
950.053
892.881
787.852
511.716
340.227
275.797
336.297
408.723
684.413
747.114
768.963
769.651
779.441
686.779
477.772
383.332
558.563
1123.26
1105.11
1093.01
1076.86
1049.7
1006.82
951.908
846.405
601.274
708.245
517.956
249.938
466.001
651.356
665.259
745.242
769.849
784.15
765.672
639.244
486.88
423.89
588.138
573.564
544.949
531.05
457.487
466.834
428.943
448.182
468.378
436.941
427.026
574.869
477.808
190.758
373.348
369.623
396.026
390.309
383.841
491.867
559.979
537.967
516.513
436.304
468.635
421.071
394.836
462.171
441.708
406.194
475.654
372.834
119.674
303.856
312.121
383.082
396.482
323.225
455.705
568.897
533.336
504.762
435.526
460.871
337.099
371.614
433.799
412.468
320.979
181.798
236.295
40.7267
217.545
284.906
376.166
385.033
286.197
444.938
608.943
496.019
514.948
443.471
378.937
295.383
443.652
390.123
396.787
212.542
109.665
89.8882
35.4231
179.271
334.1
439.36
370.656
263.515
421.005
648.836
455.286
446.186
470.73
308.172
271.45
432.399
377.872
400.693
246.725
109.342
106.157
30.692
28.5733
326.129
434.189
438.824
344.406
427.583
665.9
401.423
361.311
511.538
440.196
300.137
375.234
394.986
404.509
276.539
101.154
218.944
31.3672
29.0868
82.2577
405.159
313.905
297.625
435.605
653.89
553.725
298.091
552.901
441.825
166.368
427.712
377.425
283.885
34.3037
91.2345
207.446
38.4768
31.9032
40.9571
382.709
368.146
398.95
446.4
671.739
639.412
301.252
585.959
377.642
7.80757
411.48
75.9315
51.1977
21.6302
122.641
242.824
181.165
35.1323
42.9523
395.674
513.238
478.945
460.73
1148.19
1120.09
1108.69
1090.76
1065.35
1014.1
936.553
614.944
800.707
713.248
526.681
208.058
263.586
344.262
665.762
743.419
770.856
776.479
727.765
344.231
175.238
506.555
568.113
1186.53
1159.27
1150.82
1131.33
1104.6
1038.66
641.444
776.405
687.594
570.733
420.1
263.996
349.732
327.726
658.805
725.194
733.974
786.348
751.796
435.832
13.0646
59.4625
128.899
1226.02
1201.01
1196.99
1181.22
1154.9
1023.16
589.914
644.034
97.4996
42.6
39.5397
55.6833
156.539
195.017
788.689
810.046
816.063
827.772
807.877
317.434
10.5093
11.2476
24.9048
1259.47
1239.03
1238.45
1227.55
1203.82
1140
865.101
65.7939
39.0586
43.2861
37.0765
37.9555
52.7684
84.3004
27.6573
30.6208
600.779
913.653
805.447
5.99757
6.1205
12.8903
15.1272
1294.01
1270.02
1273.34
1263.33
1237.43
1110.83
877.293
86.0933
38.1728
35.043
77.7127
37.2641
60.7395
106.652
21.5158
44.6202
9.38453
137.68
13.0542
6.52894
5.0873
24.5004
10.183
1284.05
1137.5
1311.83
1296.28
1275.76
1220.19
554.43
141.389
167.91
158.819
48.9976
83.5783
78.6509
106.662
20.0654
4.21386
4.09807
3.83573
4.62037
6.54388
4.17079
3.39514
2.84998
1256.52
1137.23
1210.45
1344.72
1321.93
1215.31
999.731
160.258
133.696
13.2033
32.8495
61.3969
18.0019
62.2739
20.4985
3.95506
3.60983
4.09357
4.61048
6.24287
3.73097
4.68403
2.61739
1453.89
1291.7
1257.74
767.862
1347.51
1363.2
1380.48
725.796
12.5038
27.2949
9.67562
9.26942
25.3036
12.7961
20.9812
3.77311
3.30137
8.24634
6.17194
3.7689
5.55791
3.15014
3.01016
1543.92
233.784
49.1922
293.57
112.531
830.724
692.762
11.7297
8.27969
8.61961
30.6939
9.22046
18.1098
34.0202
11.653
5.95422
10.6199
5.19102
2.84115
2.88564
2.94864
5.35955
2.61668
1534.84
1234.36
35.594
16.8305
16.8787
29.9827
19.7946
5.50939
5.3281
36.8742
37.7864
32.6564
27.9582
40.7788
9.15254
7.71415
15.0554
3.10218
2.9512
2.86272
5.13534
5.70965
3.07726
1606.03
260.78
705.156
23.6938
19.5033
16.8449
50.6186
53.8519
6.03064
35.8861
3.95292
2.37426
1.92467
34.6632
17.5754
9.23828
6.00422
3.06696
2.92024
2.80212
3.56416
6.09318
5.30596
1690.31
125.962
76.594
48.7885
-0.520872
-2.71861
-2.72727
54.9942
26.4947
5.19062
4.28431
6.03263
14.2554
8.98629
2.45675
10.0715
3.05764
2.94731
2.83924
2.72934
2.61373
2.52563
2.52521
1233.68
55.4631
37.78
5.47936
0.0702864
-1.83923
11.0592
4.29475
4.00621
4.22796
3.87714
3.43262
6.9169
4.72658
4.32511
2.93674
2.8846
2.83331
2.75564
2.66712
2.57702
2.49626
2.43514
1053.22
25.3983
3.04755
11.0097
22.654
0.110807
0.419786
5.12977
4.42686
5.84567
5.31544
4.39556
7.47145
7.32248
3.43929
2.88768
2.84088
2.751
2.68202
2.60625
2.52832
2.45434
2.3893
1120.61
10.2236
2.99994
2.55648
6.54666
7.99843
7.37416
-0.204323
5.62385
11.8821
19.3538
20.3221
4.03795
3.59116
3.01501
2.82061
2.74619
2.67999
2.6155
2.54734
2.47523
2.40308
2.33507
1195.35
131.317
2.48705
2.14512
8.55436
-3.25778
-4.65006
-4.17643
-2.08595
-0.0358333
1.09965
17.9625
21.4658
3.66861
3.1247
2.73889
2.67142
2.60846
2.55331
2.49246
2.42195
2.34725
2.27476
332.859
289.739
9.24253
0.32871
6.22348
-6.05516
-9.11175
-8.99142
-5.61774
-1.49204
0.79667
1.6313
21.0492
7.30289
2.99854
2.62387
2.56754
2.52613
2.4977
2.44726
2.37234
2.28848
2.20819
409.361
652.685
-0.223535
0.881268
-0.339356
-8.82251
-12.3317
-12.1543
-8.15834
-3.13341
0.464334
1.12066
26.2042
34.3279
2.2481
2.25912
2.34306
2.41011
2.46
2.42373
2.32861
2.22363
2.13141
558.142
357.109
1.3674
5.93511
-0.71956
-8.80153
-11.8788
-11.7761
-8.21555
-4.08325
4.99813
-0.293591
31.7545
33.2201
0.952707
1.52626
1.87211
2.18072
2.45364
2.43215
2.27938
2.13738
2.03407
415.117
691.867
1.2893
3.39144
-2.79462
-5.72529
-7.9201
-8.31252
-5.81143
6.05138
5.33897
-1.67979
24.6549
30.5597
-0.671173
0.551753
1.00984
4.11099
16.1636
9.00683
2.15312
1.98252
1.89546
402.751
712.417
641.547
2.01248
1.66432
-0.413552
-2.77212
-1.51733
11.2021
5.95069
-0.887897
-2.21056
17.9317
3.13
-1.42182
-0.107048
0.0509579
11.2265
0.827204
17.8017
5.30486
1.64467
1.68366
1157.72
915.787
14.189
101.943
9.47339
6.58196
21.075
22.5467
0.488237
0.978786
23.5981
-1.51717
-2.13099
-1.86817
-0.705217
0.168253
0.369649
-0.196865
0.067704
17.397
17.8632
1.04263
1.36634
1234.98
195.171
-1.34538
159.366
9.74119
50.1622
32.5531
2.22801
0.487548
37.5597
29.8167
-0.612251
-0.932706
-0.694363
-0.0986268
0.875463
1.27531
0.284561
0.0365215
17.0156
16.772
0.361196
0.972439
222.232
153.565
-1.14125
47.5765
55.8103
41.1215
3.83692
3.42778
41.9702
8.11375
0.20789
-0.308937
-0.179579
-0.0220401
3.18918
1.64799
0.625976
0.407162
-0.126233
2.90684
-0.803934
0.171444
0.665271
17.235
619.675
3.44064
4.56601
54.1754
3.68816
4.40842
3.06781
21.5596
1.64315
2.85308
18.5385
18.9865
1.61044
2.50713
0.5103
0.620893
0.518302
0.242043
-0.0542456
0.0993823
0.45342
0.634109
15.0524
566.48
4.53261
4.45546
39.6139
3.27369
3.14246
3.13595
4.96187
2.29791
11.5973
7.51009
11.8112
25.2449
0.703221
0.748995
0.727526
0.664036
0.563575
0.502079
0.560347
0.662108
0.73682
15.1714
37.1887
4.57157
8.2008
23.9148
3.27704
3.05893
2.80202
9.64392
9.20546
6.32145
2.42887
0.961919
5.55812
0.926305
0.871431
0.816922
0.760209
0.7073
0.684057
0.70465
0.746821
0.781603
16.2133
325.124
535.551
424.617
10.6615
3.2187
2.98704
2.64286
2.29775
1.94852
1.67602
1.42545
1.19146
1.07002
1.01785
0.95085
0.884623
0.828021
0.786157
0.765923
0.76767
0.779274
0.787357
691.603
279.621
574.289
102.985
26.0105
2.95364
2.7524
2.5669
2.30092
2.01444
1.7631
1.54317
1.35081
1.21387
1.10939
1.01731
0.939017
0.876891
0.832294
0.805422
0.792684
0.786933
0.78067
365.21
8.84891
468.55
292.61
59.9727
2.79798
2.65805
2.50773
2.28781
2.04942
1.82943
1.63098
1.45344
1.30314
1.17532
1.06633
0.976854
0.906977
0.855502
0.820001
0.796343
0.77926
0.764073
125.069
4.7989
6.60676
23.2073
62.1409
2.76455
2.60321
2.45785
2.2629
2.05774
1.86702
1.68948
1.51864
1.35741
1.21332
1.09152
0.993054
0.916252
0.858231
0.815465
0.783849
0.75909
0.737508
256.459
5.27275
5.15213
6.65944
17.7892
2.88226
2.52963
2.3841
2.20056
2.02022
1.86641
1.71869
1.554
1.37814
1.21816
1.08695
0.983234
0.902677
0.840852
0.793649
0.757153
0.727785
0.702612
66.534
33.916
5.27841
41.9678
4.69726
2.64087
2.40121
2.23675
2.043
1.869
1.77205
1.68509
1.5446
1.35523
1.18009
1.04665
0.944602
0.865543
0.803923
0.75563
0.717218
0.685784
0.659039
22.0496
30.3404
27.2502
55.1433
2.49763
2.27854
2.17559
1.96358
1.70488
1.41531
4.16636
5.95448
2.97152
1.25273
1.08509
0.967192
0.877603
0.806274
0.748933
0.702639
0.664894
0.633541
0.606832
39.2958
40.6207
54.8136
17.7661
2.88054
1.97131
1.91751
2.53633
1.16815
0.78103
0.628875
2.74745
6.07088
5.18653
0.921778
0.848914
0.783467
0.725944
0.676778
0.635475
0.600898
0.571688
0.546585
53.6776
22.3274
3.8655
1.58886
1.60973
1.5585
2.29604
1.87631
0.706468
0.632192
0.790899
5.62585
5.91523
2.88419
0.735194
0.705249
0.665096
0.624861
0.587695
0.554786
0.526127
0.50118
0.479269
50.2768
322.058
0.930088
1.00906
1.11816
1.05628
2.00308
1.66917
1.47101
1.31541
0.303166
0.259687
1.84128
0.531502
0.541957
0.541533
0.526275
0.50594
0.484191
0.462743
0.44243
0.423571
0.406206
54.9733
253.283
3.27074
0.652021
0.593107
0.496535
1.4177
1.12234
0.769979
-0.46127
-0.0924141
-0.0418588
0.0851093
0.25122
0.32784
0.348172
0.368646
0.374236
0.37113
0.363143
0.352593
0.340915
0.328965
44.3438
443.058
53.8012
8.84797
-0.117763
-0.0415548
0.912748
-0.706287
-1.16054
0.549712
3.47716
-0.458347
-0.21924
-0.053108
0.00975889
0.124326
0.203267
0.238961
0.255313
0.260758
0.25993
0.255542
0.249235
88.3214
464.561
36.8646
46.6626
-1.02203
-0.61046
0.53559
-1.03443
-1.47803
2.17614
-0.999887
-0.672892
-0.437282
-0.294777
-0.172528
0.20127
0.0610026
0.11437
0.144511
0.16027
0.167427
0.169429
0.168378
90.1331
478.036
33.1025
48.694
0.302085
-0.572123
-0.00587748
-1.04076
-1.11705
3.10282
-1.01014
-0.779869
-0.586498
-0.425454
-0.281753
0.13574
-0.0428037
0.0114489
0.0450683
0.0654288
0.0774532
0.0841859
0.0875453
0.643284
35.5097
97.884
27.1042
9.38157
-0.505074
-0.663559
-1.06194
0.869427
-1.12564
-1.03353
-0.880954
-0.71221
-0.524552
-0.311282
-0.165491
-0.112186
-0.0699718
-0.041128
-0.0211949
-0.00728336
0.00244249
0.00920266
480.232
501.111
511.469
472.416
21.3737
175.911
188.949
286.582
8.10026
3.62968
3.64853
25.3181
3.26625
3.40167
3.39409
3.37744
3.20178
3.80814
3.70768
3.52544
3.06367
3.42955
2.93387
2.69291
2.46143
2.48484
2.76798
2.58278
2.43698
2.55025
2.49855
3.50835
2.57447
2.59055
2.60724
3.62035
2.72781
2.71552
2.99989
3.98752
4.54676
4.50975
2.50033
2.47145
2.44386
2.43013
2.41519
2.3969
2.39373
2.37256
2.35133
2.32949
2.33975
2.31429
2.28942
2.26481
2.28071
2.25263
2.22547
2.19906
2.2163
2.18623
2.1574
2.12972
2.14513
2.11327
2.08308
2.05444
2.0639
2.0308
1.99988
1.9708
1.96673
1.93477
1.90509
1.87697
1.84568
1.82192
1.79849
1.77409
1.69391
1.69446
1.68807
1.67233
1.50539
1.55842
1.59259
1.59777
1.24187
1.36412
1.8439
5.32892
0.816386
4.60518
4.92263
4.9808
0.598336
1.43536
2.1449
0.609889
0.721917
0.679368
0.659766
0.687884
0.788627
0.785715
0.783997
0.788479
0.785138
0.782236
0.779975
0.778868
0.77069
0.763511
0.755236
0.748797
0.749525
0.740412
0.730608
0.721624
0.719376
0.709358
0.699106
0.688535
0.682683
0.672377
0.662446
0.652634
0.638463
0.62797
0.617943
0.608255
0.586445
0.576111
0.56627
0.556837
0.52736
0.517619
0.508345
0.499485
0.46225
0.453579
0.445301
0.437385
0.392299
0.385114
0.378204
0.371561
0.318784
0.313371
0.308085
0.302945
0.243004
0.239492
0.235953
0.232432
0.166012
0.164394
0.162613
0.160727
0.0886507
0.0888027
0.0887059
0.0884165
0.0132857
0.0150045
0.0164204
0.0175789
370.568
638.405
593.218
340.878
165.921
1.22736
330.786
157.644
53.0776
19.7774
94.772
166.842
246.867
40.1384
47.9872
364.916
535.924
528.89
261.018
172.647
21.3623
247.964
463.125
322.752
357.564
76.5469
436.416
448.726
12.6879
24.3434
9.23182
95.3679
378.319
286.994
625.677
633.605
359.474
93.9438
250.702
50.6625
16.9139
180.272
699.616
660.902
188.456
451.786
527.814
12.2117
10.5485
7.11069
5.20631
3.57357
379.774
633.677
331.706
7.05354
6.08158
15.5658
303.39
18.9273
19.0226
438.199
792.906
149.402
130.929
11.8768
11.7407
21.8194
4.56257
4.54115
3.75791
3.4717
7.14577
8.31226
7.4624
6.39995
2.87308
29.365
489.655
19.9934
18.0781
74.6869
69.6271
389.225
13.4253
44.6489
9.38924
3.28824
3.50925
3.59202
2.82176
3.34479
4.87345
3.91257
3.63197
2.68494
2.55986
90.1259
720.828
601.544
706.15
622.939
97.568
25.3414
46.9515
5.61625
3.78016
2.51998
3.06014
2.35824
4.27036
3.86511
5.75623
3.73991
2.59543
2.52005
2.39848
2.17904
518.532
910.772
255.348
53.1788
16.9725
4.22917
9.60933
4.29261
2.26209
2.95208
2.47644
2.7586
2.41424
5.406
3.98201
2.56841
2.51774
2.42948
2.29513
2.11259
1.63324
2.95051
7.39876
35.976
4.12184
5.63565
68.5887
0.999324
2.30181
4.23997
2.12863
2.41698
5.37885
3.68716
2.63177
2.49669
2.4287
2.36746
2.23472
1.96315
3.07453
2.60572
9.48555
88.1055
118.039
45.6568
0.104827
1.93065
4.15345
1.90173
1.91095
2.6919
3.52373
2.52338
2.45488
2.37821
2.3077
2.20281
2.08932
2.15408
2.41144
8.17702
128.203
0.97167
0.193563
0.747099
1.53465
1.4643
1.62162
1.77502
2.15308
2.8137
2.44605
2.38346
2.31568
2.24307
2.16357
2.16212
2.76831
2.53547
1.86604
17.0724
1.53412
1.06462
0.813576
0.942468
1.15256
1.35495
1.71211
1.83131
1.92666
2.36859
2.31119
2.24749
2.17761
2.09387
2.72
2.43147
1.97168
1.75176
1.86874
1.71524
1.20316
0.538977
0.407065
1.45526
1.11193
1.81951
2.97023
2.51797
2.29895
2.241
2.17884
2.11115
2.02754
1.9306
2.54883
1.84007
1.33354
1.40795
1.42327
0.964893
0.228049
-0.0269529
1.23839
1.88998
1.21426
4.01163
4.244
2.23187
2.17304
2.11289
2.05073
1.98087
1.89601
2.15567
1.79166
3.58792
0.883263
1.06929
0.813623
0.220598
-0.065629
0.450697
1.1006
1.22842
4.08934
4.33101
2.16451
2.10549
2.04817
1.99237
1.93566
1.86691
1.75618
1.56803
5.75379
1.51825
3.97641
0.948917
0.626349
0.422745
1.13053
1.18638
2.00969
4.30851
1.78087
2.09412
2.03537
1.98092
1.9307
1.88355
1.83348
1.76178
1.63899
5.11038
6.51456
4.08624
1.33976
1.10228
0.987065
1.93682
1.45645
4.42293
4.5143
2.2483
2.01809
1.95968
1.90731
1.86072
1.81915
1.78119
1.7406
1.7023
1.83101
3.86628
2.1392
3.79953
3.62613
3.0188
1.6139
2.99605
4.8161
4.08377
3.52858
1.93416
1.87599
1.82461
1.77874
1.73644
1.69628
2.0793
4.85981
5.18034
3.8723
1.9679
2.02294
1.71142
1.6149
2.53305
2.3127
4.71323
1.41549
0.988361
1.84096
1.78281
1.73146
1.68422
1.63343
1.70569
5.24562
4.68337
3.07887
4.73169
4.61896
1.16259
1.3653
1.49015
2.93773
1.90531
4.29603
3.2941
1.1091
1.73975
1.67939
1.62794
1.58118
1.53312
5.23375
5.00111
1.21688
1.14289
0.827152
4.01606
1.25767
1.32776
2.97012
1.41115
1.40315
3.19474
3.11611
1.10196
1.63813
1.5626
1.51379
1.4707
2.30905
4.94703
1.26013
1.19079
2.34153
1.30292
0.911338
0.828147
1.16927
3.01939
1.27009
1.15533
3.49643
1.14714
0.97511
1.55058
1.41005
1.38376
1.34982
4.66142
1.2252
1.2274
1.14841
1.78953
1.85579
0.676209
0.910522
1.2649
2.93812
1.28613
2.4553
2.95041
3.2656
2.25673
5.1854
1.19363
1.2375
1.76887
1.79816
1.04431
3.13311
1.24511
1.06419
2.09036
0.945312
1.08066
1.13488
2.97255
1.34887
1.29005
1.08289
4.67817
2.08871
4.89962
1.06891
1.1402
2.61443
1.02611
0.868802
0.879068
3.24261
1.03513
1.54539
1.74708
1.12801
1.1628
1.15488
2.75383
3.48932
4.92198
4.91596
1.22001
0.753453
3.01057
1.17235
1.2155
1.57551
0.894542
1.00948
1.00192
1.01944
0.998742
2.45676
2.45104
1.54388
1.5776
2.41398
3.1986
1.37345
0.901651
1.27155
0.764057
0.88859
4.30036
4.42765
2.87927
0.993564
1.90908
0.966072
0.964927
0.949969
0.957824
0.968605
1.93934
1.8833
3.48343
3.78929
1.48546
0.743812
1.09038
0.800519
1.16675
1.35793
2.92484
4.29725
2.94435
1.38652
0.901117
0.893851
0.893601
0.896119
0.898351
0.894587
0.878682
0.842417
3.76434
1.21191
0.641152
1.78948
1.1607
1.75453
1.40449
0.777332
0.786079
0.79779
0.829047
0.836523
0.835014
0.833708
0.832707
0.829896
0.821991
0.804545
0.77103
0.896775
0.833359
0.640091
3.16745
1.03495
0.718373
0.68982
0.69866
0.693521
1.00228
0.986127
0.776021
0.774607
0.772479
0.769746
0.765069
0.756662
0.742748
0.722663
0.68513
0.676749
0.685437
4.2285
0.710266
0.759929
0.654095
0.614727
0.581285
0.741568
1.12395
1.09843
0.71216
0.710621
0.707755
0.70305
0.695784
0.685671
0.673899
0.663479
0.806878
1.16652
0.612579
0.673988
0.748791
0.714135
0.563086
0.534317
0.559307
0.605459
1.11959
0.648495
0.648765
0.646792
0.642924
0.637167
0.629805
0.62184
0.615045
0.610469
0.601339
0.58231
0.638966
0.610368
0.609929
0.617352
0.535521
0.545358
0.56523
1.05154
0.585997
0.587967
0.587032
0.584138
0.579702
0.574141
0.568064
0.562054
0.555219
0.545544
0.529079
0.595536
0.573068
0.550486
0.530485
0.518422
0.521878
0.522121
0.523489
0.527764
0.529291
0.52866
0.526429
0.52297
0.518616
0.51369
0.508336
0.501951
0.493793
0.48175
0.544683
0.524409
0.50553
0.489609
0.478662
0.478583
0.470864
0.470996
0.472028
0.472302
0.471465
0.469578
0.466803
0.463333
0.459343
0.454897
0.449795
0.443921
0.436924
0.488177
0.469839
0.453435
0.439742
0.429688
0.42337
0.419223
0.417459
0.416789
0.416133
0.415032
0.413343
0.411074
0.408318
0.405184
0.401761
0.398116
0.394483
0.391749
0.427308
0.411157
0.396973
0.385136
0.376065
0.3697
0.365392
0.362899
0.361403
0.360239
0.358999
0.357488
0.355647
0.353508
0.351156
0.348709
0.346357
0.344479
0.34436
0.363079
0.349488
0.33761
0.327671
0.319849
0.314093
0.310062
0.307414
0.30565
0.304318
0.303103
0.301816
0.300379
0.298795
0.297133
0.295516
0.294161
0.293425
0.294519
0.296316
0.285591
0.276162
0.268218
0.261856
0.257037
0.253556
0.251143
0.249468
0.248228
0.247187
0.246189
0.245155
0.244077
0.243008
0.242053
0.241397
0.241306
0.242628
0.227801
0.220122
0.213247
0.207374
0.202599
0.19891
0.196191
0.194265
0.19292
0.191958
0.191211
0.190556
0.189931
0.189318
0.188754
0.188316
0.188133
0.18837
0.189465
0.158113
0.15353
0.149248
0.145484
0.142363
0.139918
0.138103
0.136829
0.135977
0.135426
0.135064
0.134804
0.134597
0.134424
0.134303
0.134282
0.134436
0.134831
0.135649
0.087821
0.0863228
0.0846215
0.0829604
0.0815071
0.0803544
0.0795243
0.0790015
0.0787407
0.078684
0.0787691
0.0789411
0.0791622
0.0794106
0.0796915
0.0800253
0.080451
0.0809578
0.0815494
0.018807
0.0201694
0.0208799
0.0211974
0.0213263
0.0214167
0.0215575
0.0217968
0.0221506
0.0226119
0.0231579
0.023761
0.0243942
0.0250352
0.0256761
0.0263176
0.0269707
0.0276134
0.0281395
1083.29
1071.55
1054.92
1030.01
997.373
957.878
910.906
855.772
794.298
733.812
690.296
675.507
686.441
705.585
730.227
745.752
743.499
752.265
734.059
682.931
623.366
591.824
585.87
1084.12
1073.11
1056.19
1030.91
998.224
958.723
911.614
856.166
793.558
731.497
684.489
668.747
680.942
703.721
731.922
747.412
742.911
747.36
730.898
679.7
617.103
587.181
583.1
1086.93
1076.29
1058.99
1033.4
1000.7
960.701
912.974
856.725
791.74
723.943
673.258
657.63
672.418
701.073
734.395
753.197
746.327
737.1
728.613
672.772
600.919
576.117
577.341
1091.11
1080.06
1062.7
1037.09
1004.41
963.751
915.126
857.818
789.193
711.009
649.019
634.563
657.727
695.243
734.954
759.391
754.241
729.891
728.709
660.458
566.917
557.594
570.257
1095.77
1083.5
1067.15
1041.86
1009.12
967.585
917.75
859.673
786.722
691.525
610.574
601.403
637.146
684.478
733.156
761.694
730.514
729.71
736.882
627.47
485.985
529.788
564.167
1100.57
1086.37
1072.32
1047.97
1014.98
971.885
920.285
862.319
785.307
634.388
502.856
551.187
611.244
668.426
728.861
760.93
730.885
753.278
749.446
597.012
388.301
495.276
563.551
1106.2
1090.71
1076.55
1055.89
1021.66
976.38
921.669
865.983
574.431
429.595
286.566
299.89
374.83
538.539
722.815
759.97
774.031
785.603
742.924
601.665
379.695
476.959
576.083
1113.86
1097.03
1084.36
1066.08
1029.96
981.009
919.142
620.136
592.5
635.506
334.305
418.692
551.553
657.385
716.757
759.585
777.849
784.504
713.164
564.603
415.479
516.321
599.434
549.753
560.996
487.42
466.416
440.755
434.074
468.722
454.418
422.746
472.454
627.591
239.848
285.154
389.239
355.293
401.564
388.244
426.978
479.112
527.636
559.618
470.784
439.342
443.748
393.279
430.309
458.958
425.691
416.621
537.571
142.573
195.741
342.923
305.354
420.13
354.745
370.662
449.576
512.298
553.203
502.236
417.022
427.093
341.8
461.176
408.091
390.443
211.419
311.656
60.1107
131.149
274.97
285.362
464.376
296.904
345.187
426.565
547.601
456.584
494.721
380.262
312.523
317.352
421.069
393.402
345.618
114.453
111.015
55.3057
31.0594
282.851
365.487
489.518
277.708
349.764
437.366
598.077
366.214
504.997
365.776
280.86
375.304
404.469
385.179
366.547
118.622
117.55
123.737
29.1744
195.556
380.454
480.092
271.258
391.933
401.316
625.535
323.897
523.721
491.25
352.283
306.67
416.319
396.069
406.329
166.504
130.642
129.084
29.3267
32.3544
344.384
471.11
280.629
394.453
453.588
646.757
310.962
497.51
508.197
272.577
394.058
428.147
372.412
93.4625
145.976
125.962
183.477
31.6881
34.8305
51.9383
488.511
456.149
440.656
393.581
650.006
465.372
360.813
524.066
34.8892
146.57
205.307
68.063
33.3233
22.3972
108.232
211.886
34.8378
37.6828
56.698
487.556
484.435
470.3
171.637
1127.93
1108.9
1100.01
1082.85
1043.12
979.343
738.382
617.123
771.551
631.674
330.538
230.715
307.251
557.402
710.122
760.223
776.686
765.324
619.247
169.119
403.934
550.529
540.588
1163.8
1154.11
1140.71
1123.16
1078.68
858.484
610.471
755.16
612.16
521.614
280.696
287.563
317.526
505.847
712.069
726.744
745.199
776.461
703.185
106.194
11.4476
168.282
5.94279
1205.03
1197.82
1187.86
1171.49
1130.6
650.971
656.617
188.582
104.742
39.8055
39.8759
133.852
153.308
698.512
798.343
813.564
822.43
828.465
757.983
12.1244
9.74623
10.8025
44.9591
1241.61
1237.79
1236.08
1216.23
1189.04
1019.9
457.097
40.1113
40.6112
41.492
37.9013
39.0153
145.783
35.2111
25.8996
145.19
912.46
906.993
128.484
6.04246
8.60057
18.2113
3.98508
1270.09
1271.59
1271.1
1252.21
1221.7
877.398
558.722
39.2216
36.4573
66.8991
40.8258
62.4549
49.5359
92.6359
21.76
21.7457
52.8628
126.103
6.19482
5.53133
12.1766
23.6833
3.07646
1168.98
1286.77
1309
1284.28
1258.13
856.955
569.417
118.789
168.071
73.3758
80.3543
81.1292
42.3653
95.9726
23.3797
4.20464
3.89522
3.79172
7.92116
4.19578
5.27335
3.02869
2.73919
1132.69
1181.89
1324.84
1337.44
1180.57
1259.13
270.659
342.452
12.7665
12.5829
62.1887
23.1896
62.0977
31.7145
12.2766
3.77002
3.5794
5.92412
4.03029
3.98688
3.43203
3.82224
2.49717
1322.97
1292.53
1046.59
1156.14
1361.97
1366.86
1375.3
42.1694
22.2811
24.0324
9.12351
9.58671
14.028
12.6117
14.2316
3.64332
4.20336
7.75408
3.07522
6.02074
3.40105
4.07713
2.44331
1191.43
60.7187
195.711
120.073
414.225
1058.46
66.0067
6.08192
7.82652
32.3803
11.2726
9.3919
39.7519
14.065
14.2139
2.94178
10.7002
2.89577
2.8752
2.85857
4.15076
4.02421
2.57965
1575.72
174.304
23.1796
15.7028
18.7946
60.2723
5.39917
5.5465
7.84923
37.2809
34.7376
30.5119
38.5579
35.3665
7.27198
15.1473
6.03331
3.02324
2.90564
3.06932
5.21246
5.65195
2.74098
471.314
719.599
270.706
21.1735
17.7045
28.3737
52.1236
17.1442
15.9199
9.7752
3.30419
1.71861
3.68165
35.3271
4.95233
14.9702
3.14343
2.98943
2.8597
2.79486
6.14319
6.1392
4.59313
291.856
51.6036
64.9625
14.4361
-1.78399
-3.09903
42.9666
31.4068
16.6074
4.87831
3.99624
14.7708
2.10195
6.58575
3.55073
6.50295
2.99981
2.89334
2.78452
2.67192
2.55943
2.58416
2.47332
148.782
49.2909
6.94176
2.88218
-1.16203
-0.214984
12.4526
5.82876
4.19349
4.10942
3.61777
4.24641
6.65939
4.19057
4.55296
2.87
2.86351
2.79674
2.71203
2.62175
2.5346
2.4631
2.41054
107.345
4.46583
3.03548
28.3509
0.364431
-0.0733664
4.7018
4.41967
4.76802
5.4793
5.00803
6.53172
7.39263
5.42738
2.88949
2.87391
2.78327
2.71764
2.64472
2.56721
2.49042
2.42059
2.3601
145.394
10.1129
2.75876
2.17284
8.79289
7.35855
5.48287
1.25721
8.85338
17.1949
19.879
11.2079
3.92072
3.17115
2.88995
2.78239
2.71246
2.64798
2.58203
2.51159
2.43885
2.36839
2.30318
191.869
21.9087
2.19402
9.14495
5.73898
-4.13992
-4.6671
-3.24675
-0.942458
0.610348
2.96829
20.9001
3.5661
3.38733
2.87389
2.69894
2.63919
2.58075
2.52416
2.45818
2.38467
2.31045
2.24046
591.458
57.6937
0.614542
4.99377
-4.14921
-7.85163
-9.46554
-7.65946
-3.40514
-0.168948
1.33546
2.1904
26.4953
3.36564
2.73975
2.58992
2.54368
2.51308
2.47611
2.41199
2.33054
2.24746
2.17098
687.522
21.5114
-0.31066
4.31838
-6.61901
-10.9563
-12.7446
-10.5474
-5.49556
-1.08573
0.903248
7.88219
34.4927
10.6639
2.17808
2.31451
2.37358
2.44307
2.45256
2.38002
2.27525
2.17552
2.09114
718.357
2.83266
1.08515
3.91946
-6.85584
-10.6965
-12.2933
-10.317
-6.02383
3.92864
0.916884
24.9043
32.7649
16.7068
1.20764
1.72296
2.01717
2.35148
2.47087
2.35977
2.20364
2.0814
1.99335
577.801
387.125
0.639598
4.96297
-4.48687
-6.98105
-8.41332
-7.51781
-1.30076
6.01329
-0.156806
-1.64811
29.4997
11.8983
0.0482163
0.844627
1.14647
14.7309
15.1366
2.36699
2.05181
1.93336
1.86512
383.086
509.813
171.494
1.01758
1.20282
-1.92725
-3.51977
12.2902
10.1666
-0.410568
-1.14607
-0.939075
21.9871
-2.58854
-0.602841
0.116715
4.42518
2.79419
13.2444
18.1806
1.67322
1.6728
1.69048
551.578
31.5448
384.721
7.99259
8.49564
4.96656
24.22
9.05693
0.645663
3.58443
4.0117
-1.89657
-2.14539
-1.3411
-0.200373
0.32923
0.914831
-0.0833372
6.16377
17.6415
2.53768
1.25584
1.45455
1196.18
-0.669302
-0.0043745
32.9525
10.034
47.6353
2.7336
1.19424
27.2659
38.091
-0.346557
-0.839066
-0.874568
-0.43414
0.302391
1.36131
0.803769
0.117433
0.533477
16.5477
1.42561
0.743889
1.14085
1242.22
-0.40229
17.3346
12.7081
73.0441
4.20371
3.36937
25.8716
41.7654
0.296237
-0.0668365
-0.321487
-0.0635199
1.54324
3.40185
0.656691
0.53492
0.151401
0.062329
4.71606
-0.33128
0.47152
0.778182
1093.34
15.0945
3.54582
13.5772
31.0239
4.06754
3.16221
10.5035
1.97306
1.44956
18.0282
18.884
13.6851
1.14789
3.39661
0.605826
0.593967
0.398845
0.0711517
-0.0492592
0.30158
0.564371
0.646416
16.5997
88.686
4.50743
12.1292
11.3785
3.23014
2.99653
4.35383
3.98399
2.33529
18.1802
6.74468
25.2696
24.1431
3.55817
0.750385
0.701288
0.616734
0.519604
0.518829
0.611366
0.707147
0.742796
17.3189
16.552
5.61613
15.7405
3.9636
3.19313
2.91815
6.32431
9.38495
9.06233
2.63068
1.17497
2.75473
1.34952
0.891715
0.84425
0.788787
0.732079
0.690179
0.689758
0.724857
0.766886
0.788855
46.6741
33.5301
551.928
11.2089
3.15963
3.22761
2.78692
2.47593
2.11411
1.84527
1.54713
1.30368
1.11139
1.04548
0.985312
0.916818
0.854868
0.804781
0.773069
0.764696
0.773106
0.784512
0.787064
40.5561
288.593
576.969
23.3571
2.9155
3.01995
2.67274
2.44057
2.15567
1.88347
1.65079
1.44153
1.27543
1.16001
1.06181
0.976254
0.905841
0.852332
0.81676
0.797683
0.789434
0.784278
0.775567
100.03
25.6656
595.349
33.0145
9.32876
2.82095
2.59538
2.40327
2.16782
1.93636
1.72789
1.53907
1.37496
1.23684
1.11845
1.01911
0.939515
0.879058
0.83597
0.807017
0.787304
0.771661
0.756062
25.4668
4.99392
70.6389
40.6437
8.11124
2.74716
2.53903
2.36405
2.15942
1.96013
1.7772
1.60323
1.43637
1.2828
1.14949
1.03943
0.952108
0.885101
0.835186
0.798536
0.770867
0.748089
0.727092
351.468
4.97283
5.37844
51.5752
2.88645
2.5747
2.46438
2.29434
2.10776
1.94028
1.79392
1.63875
1.46597
1.29478
1.14891
1.03191
0.940346
0.869686
0.815671
0.774298
0.741781
0.714826
0.690944
363.541
5.20114
5.20682
53.4842
2.80337
2.45562
2.32713
2.13951
1.95114
1.80959
1.73266
1.62144
1.45443
1.26204
1.10875
0.992314
0.902593
0.832832
0.778338
0.735382
0.700789
0.671938
0.646925
73.8724
6.06778
54.9628
21.6318
2.50896
2.24523
2.08046
1.83538
1.56475
1.4383
5.70475
5.66445
1.86663
1.16124
1.02166
0.919712
0.839974
0.776056
0.724569
0.682841
0.648539
0.619695
0.594806
24.8264
54.1534
52.868
3.08585
2.10127
1.92142
2.48884
1.89641
0.968093
0.677037
0.717425
5.94455
6.16597
0.963661
0.884801
0.815114
0.753699
0.700332
0.655202
0.61743
0.585707
0.558692
0.535246
486.961
12.3752
1.58398
1.60724
1.65523
1.52541
2.34064
0.849073
0.605529
0.530732
3.49789
5.75699
5.89756
0.737047
0.723148
0.685142
0.644761
0.605791
0.570693
0.539953
0.513232
0.489885
0.469251
519.547
4.18032
0.870418
1.10234
1.12663
1.3922
1.82482
1.38964
1.4272
0.29866
0.275108
1.01532
0.920138
0.542434
0.545505
0.534523
0.516434
0.495119
0.473363
0.452415
0.432813
0.414705
0.398059
55.6038
209.456
0.765132
0.587231
0.575882
1.26184
1.24841
1.00894
-0.432696
-0.337987
-0.0479826
0.0148525
0.170381
0.305255
0.337388
0.359854
0.372839
0.373488
0.367576
0.358081
0.346831
0.334937
0.32306
40.1862
65.4987
45.0226
-0.092765
-0.0362655
0.964394
0.699697
-0.908511
-1.42009
2.83123
-0.60365
-0.325617
-0.126483
-0.0174052
0.0554331
0.172252
0.224292
0.248911
0.259047
0.260927
0.25806
0.252554
0.2457
101.15
81.2033
45.3267
3.14346
-0.737662
0.37695
-0.848485
-1.23747
-1.39918
2.90375
-0.853753
-0.539938
-0.356832
-0.264159
-0.0424128
0.238028
0.0914088
0.131757
0.153753
0.164668
0.168917
0.169191
0.167143
78.1839
477.082
34.0662
48.0039
-1.48091
0.250028
-0.929081
-1.10963
0.569988
-1.04269
-0.886846
-0.679052
-0.502444
-0.364785
0.02806
-0.00368861
-0.0113319
0.0304759
0.0565409
0.0722595