/*--------------------------------*- C++ -*----------------------------------*\
| =========                 |                                                 |
| \\      /  F ield         | OpenFOAM: The Open Source CFD Toolbox           |
|  \\    /   O peration     | Version:  v1912                                 |
|   \\  /    A nd           | Website:  www.openfoam.com                      |
|    \\/     M anipulation  |                                                 |
\*---------------------------------------------------------------------------*/
FoamFile
{
    version     2.0;
    format      ascii;
    class       surfaceScalarField;
    location    "1";
    object      phi;
}
// * * * * * * * * * * * * * * * * * * * * * * * * * * * * * * * * * * * * * //

dimensions      [0 3 -1 0 0 0 0];
oriented        oriented;


internalField   nonuniform List<scalar> 
17936
(
1.61654e-06
-1.90481e-06
2.88269e-07
-2.93202e-06
3.92786e-06
-9.95838e-07
-4.25586e-06
3.98058e-06
2.75277e-07
-3.6766e-06
3.76288e-06
-8.62792e-08
-4.25117e-06
4.9192e-06
-6.68032e-07
-5.62419e-06
6.30979e-06
-6.85599e-07
-6.97343e-06
7.64002e-06
-6.66582e-07
-8.33418e-06
9.06258e-06
-7.28406e-07
-9.81956e-06
1.06128e-05
-7.9321e-07
-1.14531e-05
1.22405e-05
-7.87434e-07
-1.27486e-05
1.27661e-05
-1.74971e-08
-1.23156e-05
1.13097e-05
1.00592e-06
-9.43085e-06
6.43651e-06
2.99434e-06
-2.88853e-06
6.3784e-08
2.82474e-06
1.44929e-06
-1.9984e-06
5.49108e-07
1.94427e-06
-1.41067e-06
-5.33606e-07
6.04263e-08
1.93307e-06
-1.9935e-06
-9.263e-07
-2.71411e-06
3.64041e-06
6.58354e-06
-8.05809e-06
1.47455e-06
5.05753e-06
-1.29703e-06
-3.7605e-06
-1.04825e-06
2.72121e-06
-1.67296e-06
-3.48487e-06
3.41377e-06
7.10934e-08
-2.84233e-06
1.9362e-06
9.06126e-07
1.3685e-06
-5.66869e-07
-8.0163e-07
8.27923e-07
-8.55627e-07
1.22684e-06
-1.19913e-06
4.42696e-07
3.98234e-07
2.16064e-08
-8.62536e-07
-1.14632e-06
1.40849e-06
1.1972e-07
-3.81889e-07
-1.43685e-06
1.64091e-06
6.31183e-07
-8.35242e-07
-2.19386e-06
3.06658e-06
1.29544e-06
-2.16816e-06
-4.15353e-06
5.35991e-06
1.7781e-06
-2.98448e-06
-6.6241e-06
7.90961e-06
2.07679e-06
-3.36231e-06
-9.17527e-06
1.03563e-05
2.06982e-06
-3.25087e-06
-1.13333e-05
1.19891e-05
1.6257e-06
-2.2815e-06
-1.23385e-05
1.2229e-05
-8.28026e-07
9.37503e-07
-1.14454e-05
1.00653e-05
-2.68619e-06
4.06635e-06
-8.39254e-06
6.88426e-06
-3.9172e-06
5.42548e-06
-5.78367e-06
4.63043e-06
-4.70701e-06
5.86026e-06
-3.18724e-06
1.52811e-06
-1.78227e-06
3.44141e-06
2.7587e-07
-2.0666e-06
-9.76976e-08
1.88843e-06
2.81767e-06
-2.86206e-06
3.02726e-06
-2.98287e-06
4.96092e-06
-9.04018e-06
-8.36877e-06
1.2448e-05
1.03877e-05
-7.363e-06
3.64634e-07
-3.38938e-06
3.55304e-06
-5.65172e-07
7.01685e-06
-1.00047e-05
-2.06839e-06
3.81603e-06
3.3778e-06
-5.12544e-06
-4.36759e-06
3.88966e-06
-4.01544e-07
8.7947e-07
-2.78359e-06
1.42159e-06
-1.94034e-06
3.30235e-06
-3.2157e-07
1.3132e-06
-9.91632e-07
1.49952e-06
-1.87131e-06
1.11048e-06
-7.38696e-07
1.60988e-06
-6.10509e-07
1.82152e-06
-2.82089e-06
-5.88536e-07
1.54062e-06
9.9913e-07
-1.95121e-06
-2.24565e-06
2.86555e-06
1.31299e-06
-1.93289e-06
-3.47159e-06
4.10234e-06
2.94645e-06
-3.5772e-06
-4.8182e-06
5.68824e-06
3.94854e-06
-4.81858e-06
-6.72167e-06
7.89238e-06
4.51765e-06
-5.68836e-06
-9.15413e-06
1.04509e-05
4.46901e-06
-5.76581e-06
-1.16945e-05
1.27562e-05
3.14582e-06
-4.2075e-06
-1.35384e-05
1.40019e-05
-6.00674e-07
1.37168e-07
-1.40557e-05
1.36029e-05
-4.68682e-06
5.13959e-06
-1.26671e-05
1.1486e-05
-6.91818e-06
8.09931e-06
-1.01808e-05
8.60397e-06
-7.24301e-06
8.81984e-06
-6.59885e-06
4.29795e-06
-5.51596e-06
7.81687e-06
-1.90138e-06
-6.24031e-07
-4.23463e-06
6.76004e-06
3.31429e-06
-6.12559e-06
1.53676e-06
1.27454e-06
9.16442e-06
-1.06559e-05
-1.53336e-05
1.68251e-05
8.97793e-06
-5.40629e-06
6.87467e-06
-1.04463e-05
2.66356e-06
2.06217e-08
1.27416e-05
-1.54257e-05
-3.16288e-06
5.17706e-06
6.96906e-06
-8.98324e-06
-5.48414e-06
4.40323e-06
-1.59686e-06
2.67778e-06
-2.78853e-06
1.25744e-06
-4.77867e-06
6.30975e-06
-2.45863e-06
3.77006e-06
-1.31143e-06
2.40061e-06
-3.31367e-06
3.03023e-08
8.82752e-07
3.10417e-06
-1.95265e-06
3.91838e-06
-5.0699e-06
6.30901e-07
4.65537e-07
3.03748e-06
-4.13392e-06
-1.32808e-06
2.02963e-06
2.60211e-06
-3.30365e-06
-2.67164e-06
3.37378e-06
4.19291e-06
-4.89505e-06
-4.23328e-06
5.27733e-06
5.75422e-06
-6.79827e-06
-6.48134e-06
7.80603e-06
6.93731e-06
-8.262e-06
-9.21999e-06
1.07099e-05
7.15547e-06
-8.64539e-06
-1.22322e-05
1.36537e-05
5.41969e-06
-6.84116e-06
-1.4752e-05
1.53014e-05
3.6215e-07
-9.11574e-07
-1.52011e-05
1.45023e-05
-5.68951e-06
6.38839e-06
-1.33767e-05
1.20323e-05
-9.28991e-06
1.06343e-05
-1.05396e-05
8.80216e-06
-1.04481e-05
1.21855e-05
-6.71283e-06
4.3306e-06
-1.01568e-05
1.2539e-05
-1.87511e-06
-6.47817e-07
-9.3037e-06
1.18266e-05
4.05181e-06
-8.07262e-06
-4.91155e-06
8.93237e-06
1.03473e-05
-9.53505e-06
-1.70128e-05
1.62006e-05
6.83716e-06
-4.50334e-06
1.35324e-05
-1.58663e-05
2.64e-06
1.30626e-06
1.85169e-05
-2.24632e-05
-6.04593e-06
8.87171e-06
1.1294e-05
-1.41198e-05
-8.34525e-06
5.72231e-06
-4.31636e-06
6.93931e-06
-3.0591e-06
1.23082e-06
-7.96174e-06
9.79002e-06
-5.20405e-06
6.68521e-06
-1.48116e-06
3.04289e-06
-4.01611e-06
-1.86778e-06
2.841e-06
3.73011e-06
-2.63357e-06
6.21317e-06
-7.30971e-06
1.48027e-06
-5.60819e-07
5.15766e-06
-6.07711e-06
-2.46427e-07
9.76555e-07
4.02641e-06
-4.75653e-06
-1.74201e-06
2.63054e-06
5.70198e-06
-6.5905e-06
-3.6817e-06
4.88908e-06
7.93512e-06
-9.1425e-06
-6.21706e-06
7.6491e-06
9.64101e-06
-1.10731e-05
-9.26971e-06
1.11839e-05
1.02842e-05
-1.21984e-05
-1.32781e-05
1.52734e-05
8.55946e-06
-1.05548e-05
-1.67774e-05
1.73658e-05
1.52409e-06
-2.11242e-06
-1.69632e-05
1.58099e-05
-7.25692e-06
8.41023e-06
-1.42862e-05
1.27131e-05
-1.21058e-05
1.36789e-05
-1.11685e-05
9.38076e-06
-1.40603e-05
1.5848e-05
-7.00686e-06
4.15436e-06
-1.5099e-05
1.79515e-05
-1.35642e-06
-1.15114e-06
-1.43361e-05
1.68436e-05
4.12099e-06
-7.53882e-06
-1.281e-05
1.62279e-05
8.96529e-06
-7.52497e-06
-1.48402e-05
1.33999e-05
5.60022e-06
-5.31499e-06
1.72038e-05
-1.7489e-05
3.64621e-06
6.50471e-07
2.72005e-05
-3.14972e-05
-5.64821e-06
1.01987e-05
1.77433e-05
-2.22938e-05
-1.13601e-05
7.88151e-06
-1.06626e-05
1.41413e-05
-3.46772e-06
1.0068e-06
-1.18645e-05
1.43254e-05
-8.12377e-06
9.43021e-06
-1.30644e-06
2.99661e-06
-3.89836e-06
-3.77461e-06
4.67636e-06
3.69855e-06
-2.71564e-06
8.34904e-06
-9.33195e-06
1.78107e-06
-1.17315e-06
6.85545e-06
-7.46337e-06
5.47365e-07
1.65977e-07
5.49022e-06
-6.20356e-06
-9.70588e-07
1.94589e-06
7.53181e-06
-8.50712e-06
-3.0942e-06
4.4075e-06
1.04017e-05
-1.1715e-05
-5.97688e-06
7.87761e-06
1.26567e-05
-1.45574e-05
-9.93822e-06
1.18438e-05
1.43759e-05
-1.62815e-05
-1.37998e-05
1.64737e-05
1.26906e-05
-1.53644e-05
-1.94154e-05
2.07233e-05
2.64832e-06
-3.95624e-06
-1.97637e-05
1.73342e-05
-1.00807e-05
1.25102e-05
-1.45332e-05
1.19046e-05
-1.5525e-05
1.81536e-05
-1.0008e-05
8.70997e-06
-1.71605e-05
1.84585e-05
-7.24387e-06
4.36914e-06
-2.09756e-05
2.38504e-05
-1.09253e-06
-1.52871e-06
-1.93929e-05
2.20141e-05
3.79536e-06
-6.01402e-06
-1.90527e-05
2.12713e-05
6.86294e-06
-6.49241e-06
-1.23243e-05
1.19538e-05
7.16441e-06
-9.27224e-06
1.66642e-05
-1.45563e-05
1.08405e-05
-1.16099e-05
3.35511e-05
-3.27817e-05
9.42376e-06
-4.27719e-06
2.77082e-05
-3.28548e-05
-2.09859e-06
4.65449e-06
-1.51501e-05
1.25942e-05
-2.66778e-06
3.56809e-07
-1.70497e-05
1.93607e-05
-1.05233e-05
1.13325e-05
-8.0918e-07
2.36045e-06
-3.26349e-06
-5.56862e-06
6.47167e-06
3.33179e-06
-2.44935e-06
1.02577e-05
-1.11401e-05
1.74454e-06
-1.53792e-06
7.88124e-06
-8.08786e-06
1.16427e-06
-5.78735e-07
6.85641e-06
-7.44194e-06
-2.01749e-07
1.18608e-06
9.49382e-06
-1.04782e-05
-2.48416e-06
4.39452e-06
1.32087e-05
-1.51191e-05
-6.52924e-06
7.48506e-06
1.65552e-05
-1.75111e-05
-6.78838e-06
6.14519e-06
1.71533e-05
-1.65101e-05
-8.03293e-06
1.23878e-05
2.01226e-05
-2.44775e-05
-1.74024e-05
2.12624e-05
7.77661e-06
-1.16366e-05
-2.23691e-05
2.07025e-05
-1.65032e-05
1.81698e-05
-1.77523e-05
1.17686e-05
-2.35248e-05
2.95085e-05
-6.26746e-06
4.89985e-06
-2.00812e-05
2.14488e-05
-5.82653e-06
3.97638e-06
-2.61106e-05
2.79608e-05
-7.32161e-07
-2.01265e-06
-2.4698e-05
2.74428e-05
3.87756e-06
-5.11029e-06
-2.291e-05
2.41427e-05
5.76772e-06
-7.04199e-06
-1.23482e-05
1.36225e-05
1.06379e-05
-1.59476e-05
1.07698e-05
-5.46004e-06
2.19422e-05
-2.60838e-05
2.9937e-05
-2.57954e-05
2.60067e-05
-2.18313e-05
3.78674e-05
-4.20428e-05
1.48062e-05
-7.35645e-06
-6.46523e-06
-9.84554e-07
2.64933e-06
-1.62592e-06
-2.05944e-05
1.9571e-05
-1.18048e-05
1.19058e-05
-1.00999e-07
1.27099e-06
-2.10454e-06
-7.36325e-06
8.1968e-06
2.48618e-06
-1.87239e-06
1.1945e-05
-1.25588e-05
1.58768e-06
-1.81306e-06
8.05976e-06
-7.83438e-06
1.74236e-06
-1.32956e-06
7.94541e-06
-8.3582e-06
5.97348e-07
6.97575e-07
1.15238e-05
-1.28187e-05
-2.6722e-06
3.9491e-06
1.73001e-05
-1.8577e-05
-2.1401e-06
-3.51078e-06
1.57831e-05
-1.01322e-05
9.92059e-06
-1.47682e-05
1.39207e-05
-9.07313e-06
1.79178e-05
-1.82735e-05
2.51865e-05
-2.48308e-05
1.46038e-05
-6.39607e-06
1.92153e-05
-2.74231e-05
-3.04387e-06
6.1302e-06
-1.9339e-05
1.62526e-05
-5.08392e-06
3.6796e-06
-3.27323e-05
3.41366e-05
-1.34861e-06
3.63369e-07
-2.1656e-05
2.26412e-05
-3.00153e-06
2.65793e-06
-2.9881e-05
3.02246e-05
2.33323e-07
-2.87196e-06
-3.01974e-05
3.28361e-05
4.6265e-06
-5.74101e-06
-2.52171e-05
2.63316e-05
6.82467e-06
-9.41769e-06
-1.56711e-05
1.82642e-05
1.42546e-05
-2.06889e-05
-8.11285e-07
7.24563e-06
2.77282e-05
-3.33822e-05
2.06984e-05
-1.50444e-05
3.62839e-05
-3.57856e-05
4.47732e-05
-4.52715e-05
3.12161e-05
-2.24283e-05
9.43634e-06
-1.82241e-05
1.20255e-05
-4.83529e-06
-1.5721e-05
8.53078e-06
7.58873e-06
-1.42066e-05
6.61792e-06
-8.69015e-06
5.29442e-06
3.39572e-06
-1.27456e-06
-1.67805e-06
2.95261e-06
-7.25067e-09
-1.16592e-06
1.17317e-06
4.88645e-06
-4.28404e-06
-6.02409e-07
4.34201e-06
-8.6501e-06
4.30809e-06
1.63143e-05
-2.30924e-05
6.77816e-06
2.30174e-05
-1.76218e-05
-5.39558e-06
1.36703e-05
-1.30918e-05
-5.78474e-07
1.38991e-05
-1.19244e-05
-1.97469e-06
6.13327e-06
6.4298e-06
-1.25631e-05
-2.81962e-05
4.5374e-05
-1.71777e-05
-5.19344e-05
4.88788e-05
3.05566e-06
-3.43587e-05
1.18082e-05
2.25505e-05
6.30718e-06
-1.43337e-05
8.02654e-06
1.53006e-05
-6.98713e-06
-8.31344e-06
5.80311e-07
-5.92308e-06
5.34277e-06
1.55428e-05
-1.92674e-05
3.72461e-06
1.52855e-05
-5.34318e-06
-9.94227e-06
1.98563e-05
-2.34835e-05
3.62721e-06
-6.36332e-06
6.79844e-07
-7.22477e-06
1.29082e-05
5.76675e-06
-4.30639e-06
-2.63794e-06
1.17758e-06
1.40694e-06
-2.86765e-06
-4.40047e-06
5.86117e-06
9.13588e-06
-1.55074e-05
-2.63426e-06
9.00583e-06
2.31964e-05
-3.14632e-05
-1.30716e-05
2.13385e-05
3.35401e-05
-2.49809e-05
-5.75698e-06
-2.80214e-06
1.23111e-05
-4.9291e-06
1.51046e-05
-2.24866e-05
4.2494e-06
-7.30671e-06
5.7244e-08
3.00007e-06
1.45905e-05
-2.25045e-05
-1.03962e-06
8.95362e-06
2.39894e-05
-1.71933e-05
2.1656e-05
-2.8452e-05
1.78331e-06
2.03551e-05
3.67084e-05
-5.88467e-05
-3.29335e-05
3.75621e-05
3.70093e-07
-4.99875e-06
-3.84781e-05
3.6178e-05
-3.57574e-05
3.80575e-05
-2.25001e-05
3.31197e-06
-2.48729e-05
4.4061e-05
6.25794e-06
-1.05526e-05
1.09855e-05
-6.69089e-06
1.39805e-05
-1.96172e-05
-1.19844e-05
1.76212e-05
2.38512e-05
-2.38347e-05
-4.31417e-06
4.29772e-06
1.62941e-05
-4.25988e-06
2.09764e-05
-3.30107e-05
2.33361e-05
-2.04267e-05
-2.9094e-06
4.06812e-06
-1.16442e-05
-2.08424e-05
2.84185e-05
1.40391e-05
-1.0704e-05
1.77532e-06
-5.11043e-06
9.29174e-06
-1.05916e-05
-7.25545e-06
8.55536e-06
1.49307e-05
-2.28282e-05
-1.64018e-05
2.42994e-05
3.01883e-05
-3.22347e-05
-2.7075e-05
2.91214e-05
2.28288e-05
-9.03176e-06
1.64573e-05
-3.02543e-05
2.1003e-06
-2.61806e-06
2.5008e-05
-2.44903e-05
6.98876e-06
-1.40092e-05
-9.22838e-06
1.62488e-05
2.01645e-05
-2.21665e-05
-1.51164e-05
1.71183e-05
2.17031e-05
-2.14942e-05
3.19304e-05
-3.21393e-05
1.51228e-05
3.50596e-06
7.87377e-05
-9.73664e-05
-1.68976e-05
2.15325e-05
1.2166e-05
-1.6801e-05
-2.40027e-05
2.61094e-05
-3.63703e-05
3.42637e-05
-2.86517e-05
2.24295e-05
-5.78511e-05
6.40732e-05
-9.4928e-06
-1.41018e-06
-2.03573e-06
1.29387e-05
9.9029e-06
-1.42825e-05
-2.28258e-05
2.72053e-05
1.6552e-05
-1.40403e-05
-1.47001e-06
-1.04163e-06
8.22734e-06
-3.37412e-06
4.0784e-05
-4.56373e-05
1.53067e-05
-8.74949e-06
-6.55722e-06
1.12422e-05
-1.63084e-05
-3.48033e-05
3.98695e-05
1.75012e-05
-1.57155e-05
8.64399e-06
-1.04297e-05
1.60195e-05
-1.70523e-05
-1.03065e-05
1.13393e-05
1.98707e-05
-2.54212e-05
-3.1111e-05
3.66616e-05
2.90788e-05
-2.39778e-05
-2.72686e-05
2.21675e-05
1.33516e-05
-7.03759e-06
4.09763e-05
-4.72903e-05
6.50893e-06
-7.95909e-06
2.27581e-05
-2.1308e-05
1.0836e-05
-1.3492e-05
-2.18075e-05
2.44636e-05
1.15677e-05
4.28174e-07
-1.28722e-05
8.76385e-07
-5.13579e-06
-2.24876e-06
2.96862e-05
-2.23016e-05
5.80765e-06
-4.31412e-06
0.000108363
-0.000109857
-2.84321e-06
9.45201e-06
2.10792e-05
-2.76881e-05
-1.20859e-05
1.71978e-05
-3.25638e-05
2.74519e-05
-2.04673e-05
2.39007e-05
-6.39268e-05
6.04934e-05
-2.07063e-05
8.61119e-06
-2.59331e-05
3.80282e-05
2.37785e-06
-5.75822e-06
-3.09671e-05
3.43475e-05
6.18747e-06
-5.22707e-06
2.21414e-06
-3.17454e-06
4.12781e-06
-2.88405e-06
4.9463e-05
-5.07068e-05
1.52387e-06
5.22955e-06
-6.75342e-06
1.24618e-05
-1.48858e-05
-4.34991e-05
4.59231e-05
1.86923e-05
-2.00552e-05
1.0261e-05
-8.89806e-06
1.98226e-05
-1.99174e-05
-1.15216e-05
1.16164e-05
1.99549e-05
-2.20413e-05
-4.10022e-05
4.30886e-05
2.2385e-05
-1.79351e-05
-1.63201e-05
1.18703e-05
1.35807e-05
-1.24638e-05
4.99861e-05
-5.1103e-05
1.25503e-05
-1.24516e-05
2.068e-05
-2.07787e-05
1.17184e-05
-8.94816e-06
-2.41394e-05
2.13691e-05
-8.60811e-07
1.86928e-05
1.61918e-05
-3.40238e-05
-2.52344e-05
1.58763e-05
1.36908e-05
-4.33277e-06
9.30119e-07
-1.00345e-05
0.000104884
-9.57792e-05
7.9909e-06
-2.52518e-06
3.46942e-05
-4.01599e-05
-4.72035e-06
1.00792e-05
-2.3573e-05
1.82142e-05
-1.57908e-05
1.84209e-05
-5.69579e-05
5.43278e-05
-1.7837e-05
1.09616e-05
-4.75814e-05
5.44569e-05
-2.43495e-06
-5.94472e-07
-3.74474e-05
4.04768e-05
-7.63771e-07
1.32138e-06
4.52275e-06
-5.08036e-06
5.04009e-07
-3.06296e-06
4.93769e-05
-4.6818e-05
-1.05653e-05
1.42508e-05
-3.68554e-06
7.84134e-06
-8.3807e-06
-4.76624e-05
4.82018e-05
1.4042e-05
-1.97407e-05
5.84683e-06
-1.4813e-07
2.12974e-05
-2.1735e-05
-1.18291e-05
1.22668e-05
2.33289e-05
-2.42638e-05
-4.39988e-05
4.49337e-05
2.25201e-05
-1.91324e-05
-8.3575e-06
4.96975e-06
1.60904e-05
-1.46236e-05
5.1881e-05
-5.33477e-05
1.6585e-05
-1.65621e-05
2.11593e-05
-2.11822e-05
1.28529e-05
-6.87802e-06
-1.67734e-05
1.07985e-05
1.73197e-06
5.00931e-06
4.71843e-05
-5.39255e-05
-1.53431e-05
1.12633e-05
-2.55537e-06
6.63512e-06
3.93592e-06
-1.54321e-05
8.43817e-05
-7.28855e-05
1.75679e-05
-1.34446e-05
4.40777e-05
-4.8201e-05
7.49126e-06
-5.51645e-07
-9.46282e-06
2.5232e-06
-7.14983e-06
1.03083e-05
-5.11581e-05
4.79996e-05
-1.15033e-05
8.77205e-06
-5.90937e-05
6.18249e-05
-5.68134e-06
4.59031e-06
-4.26993e-05
4.37904e-05
-5.27727e-06
3.45895e-06
4.01424e-06
-2.19592e-06
-1.68423e-06
-1.10208e-06
4.37808e-05
-4.09945e-05
-1.62543e-05
1.6914e-05
-6.59669e-07
2.20921e-06
4.2501e-07
-4.66642e-05
4.403e-05
1.39858e-06
-1.31917e-05
-9.06273e-06
2.08559e-05
2.027e-05
-2.1349e-05
-1.29236e-05
1.40026e-05
2.20762e-05
-2.24641e-05
-4.58261e-05
4.6214e-05
2.1237e-05
-1.84598e-05
-1.78133e-06
-9.95855e-07
1.48994e-05
-1.35898e-05
5.46761e-05
-5.59857e-05
1.57272e-05
-1.92687e-05
2.0227e-05
-1.66854e-05
1.64108e-05
-1.31161e-05
-4.95032e-06
1.65567e-06
1.03339e-05
-1.01327e-05
5.41926e-05
-5.43938e-05
4.28535e-06
-4.56694e-06
-7.98434e-06
8.26593e-06
1.35694e-05
-2.00324e-05
6.30967e-05
-5.66337e-05
2.41753e-05
-2.14289e-05
5.19206e-05
-5.4667e-05
1.62305e-05
-1.06049e-05
3.03723e-06
-8.66291e-06
5.30136e-06
-4.07481e-07
-4.21562e-05
3.72623e-05
-1.41771e-06
4.3782e-06
-6.25225e-05
5.9562e-05
-3.27972e-06
2.73802e-06
-4.42183e-05
4.476e-05
-3.82506e-06
5.60576e-06
1.67963e-06
-3.46033e-06
-5.90455e-06
4.94125e-06
3.89559e-05
-3.79926e-05
1.28721e-05
-1.69307e-05
4.05862e-06
-1.75677e-06
4.13917e-06
-4.16265e-05
3.92441e-05
-9.11422e-06
1.28017e-06
-3.24707e-05
4.03047e-05
1.34386e-05
-1.88776e-05
-1.64254e-05
2.18644e-05
1.8122e-05
-1.54872e-05
-4.54409e-05
4.28062e-05
1.43782e-05
-1.54354e-05
1.72219e-06
-6.65078e-07
1.54152e-05
-1.38989e-05
5.79839e-05
-5.95002e-05
2.73284e-06
1.02933e-05
1.10942e-05
-2.41203e-05
-1.4833e-05
1.27911e-05
4.90641e-06
-2.86456e-06
-1.81413e-05
5.63692e-06
5.09973e-05
-3.8493e-05
1.33875e-05
-1.02049e-05
-7.51723e-06
4.3346e-06
1.92671e-05
-2.33597e-05
5.2713e-05
-4.86204e-05
2.67782e-05
-2.85598e-05
5.51122e-05
-5.33306e-05
2.48778e-05
-1.63932e-05
1.64177e-05
-2.49023e-05
1.02551e-05
-6.64996e-06
-3.33551e-05
2.975e-05
3.6655e-06
1.27674e-07
-5.59576e-05
5.21644e-05
1.41701e-07
7.85267e-07
-4.49961e-05
4.40691e-05
-3.77477e-06
7.57235e-06
6.78671e-06
-1.05843e-05
-9.67231e-06
8.28239e-06
3.76868e-05
-3.62969e-05
-1.0899e-05
8.85488e-06
2.04414e-06
-1.10893e-06
-5.88066e-08
-8.91973e-06
1.00875e-05
1.84408e-06
-2.76428e-06
1.28185e-05
-1.18983e-05
3.80885e-06
-4.99333e-06
7.48252e-06
-6.29804e-06
5.55355e-06
-5.31582e-06
8.67047e-06
-8.90819e-06
3.60131e-06
-1.56793e-06
1.44031e-05
-1.64364e-05
5.05396e-06
-1.98422e-05
1.70806e-05
-2.29237e-06
4.10656e-05
-5.85597e-05
1.61542e-06
1.58786e-05
7.03774e-05
-8.01806e-05
3.72896e-06
6.07421e-06
8.63014e-05
-8.86686e-05
2.38627e-05
-2.14955e-05
8.78079e-05
-8.17044e-05
3.40986e-05
-4.0202e-05
6.69296e-05
-4.32104e-05
-6.7976e-06
-1.69216e-05
2.33805e-05
-9.80859e-06
-3.38294e-05
2.02575e-05
3.69753e-06
-5.22706e-06
-2.53969e-05
2.69265e-05
7.32756e-06
-5.35444e-06
-2.86506e-05
2.66775e-05
6.61393e-06
-9.22684e-06
-3.5185e-05
3.77979e-05
1.20969e-05
-1.51489e-05
-2.75937e-05
3.06456e-05
1.87227e-05
-2.38489e-05
-2.09945e-05
2.61207e-05
3.09186e-05
-3.83498e-05
-1.28775e-05
2.03087e-05
4.44928e-05
-5.02555e-05
9.54932e-06
-3.78662e-06
6.17788e-05
-7.76946e-05
4.28706e-05
-2.69548e-05
8.5546e-05
-8.83625e-05
2.44334e-05
-2.16169e-05
8.73574e-05
-8.29674e-05
2.61464e-06
-7.00466e-06
-6.45133e-06
3.61507e-06
2.83626e-06
-4.24229e-06
4.87695e-06
-1.0195e-05
9.56038e-06
-3.33432e-06
3.9033e-08
9.31771e-06
-6.02243e-06
4.04352e-06
-7.23224e-06
4.15121e-06
-9.62491e-07
9.74384e-06
-1.15582e-05
8.48737e-06
-6.67303e-06
1.58186e-05
-2.91817e-05
1.21084e-05
1.25463e-06
5.01011e-05
-6.55089e-05
-2.18622e-05
3.727e-05
6.6996e-05
-6.06119e-05
-2.44341e-05
1.80501e-05
5.52634e-05
-5.7561e-05
-1.06808e-05
1.29784e-05
6.50145e-05
-7.3068e-05
1.67734e-05
-8.71987e-06
7.9764e-05
-9.32256e-05
3.56124e-05
-2.21508e-05
0.000107128
-0.00011082
3.12067e-05
-2.75151e-05
0.000103383
-8.7442e-05
3.3405e-06
-1.92816e-05
6.77833e-05
-4.99705e-05
-1.7033e-05
-7.79771e-07
4.06978e-05
-3.3695e-05
-2.5407e-05
1.84042e-05
2.48222e-05
-1.90242e-05
-3.66817e-05
3.08836e-05
1.67439e-05
-1.71209e-05
-3.31956e-05
3.35725e-05
1.93987e-05
-2.35693e-05
-3.02886e-05
3.44591e-05
2.86319e-05
-3.12887e-05
-2.32137e-05
2.58705e-05
2.83871e-05
-2.1665e-05
1.32648e-05
-1.99869e-05
1.41732e-05
-2.76131e-05
-1.16374e-05
2.50773e-05
5.27482e-05
-5.45318e-05
1.89753e-05
-1.71917e-05
4.40026e-05
-3.9791e-05
-7.43035e-06
3.21872e-06
1.6691e-07
-4.50889e-06
4.34198e-06
-5.36672e-06
5.72384e-06
-8.84558e-06
8.48845e-06
-4.73357e-06
8.17467e-07
2.39457e-06
1.52154e-06
4.41659e-06
-9.00216e-06
-3.05013e-06
7.63569e-06
1.3396e-05
-1.89339e-05
2.68766e-06
2.85015e-06
2.89033e-05
-4.24318e-05
-1.72348e-05
3.07633e-05
5.07373e-05
-4.5657e-05
-4.03903e-05
3.531e-05
3.24415e-05
-2.06847e-05
1.44342e-06
-1.32002e-05
1.25675e-05
-1.83005e-05
-1.60607e-05
2.17937e-05
4.17123e-05
-6.41876e-05
-7.71138e-07
2.32464e-05
6.94562e-05
-5.8168e-05
1.38319e-05
-2.51201e-05
3.4356e-05
-2.0461e-05
1.34132e-05
-2.73082e-05
2.93213e-05
-5.4309e-05
1.95987e-05
5.38904e-06
7.04767e-05
-8.10523e-05
9.35942e-06
1.21626e-06
7.87981e-05
-7.12314e-05
-7.77841e-06
2.11669e-07
6.18902e-05
-5.21297e-05
-2.09116e-05
1.11512e-05
4.35031e-05
-3.76506e-05
-3.01634e-05
2.43108e-05
3.52978e-05
-3.54273e-05
-3.78535e-05
3.79829e-05
3.5255e-05
-3.31327e-05
-2.69524e-05
2.48301e-05
2.93779e-05
-1.1252e-05
2.40542e-05
-4.21802e-05
1.9784e-05
-1.84597e-05
-1.99675e-05
1.86431e-05
7.773e-06
-5.85268e-06
1.17507e-06
-3.09539e-06
1.83442e-05
-2.45442e-05
1.74333e-05
-1.12333e-05
8.4949e-06
-1.19948e-05
3.49989e-06
-7.63502e-06
8.62403e-06
-8.0938e-06
7.10479e-06
-6.8304e-06
2.0929e-06
-5.89045e-06
1.0628e-05
3.20937e-06
-7.95504e-06
-1.25388e-05
1.72844e-05
1.3003e-05
-1.87418e-05
-8.97974e-06
1.47185e-05
2.57672e-05
-3.41945e-05
-4.13719e-05
4.97992e-05
3.92328e-05
-3.68344e-05
-2.77019e-05
2.53035e-05
3.4073e-05
-4.77827e-05
1.1143e-05
2.56665e-06
7.08216e-05
-7.41879e-05
-4.10183e-05
4.43846e-05
6.46897e-05
-5.6351e-05
-1.53519e-05
7.01322e-06
5.32265e-05
-4.75681e-05
2.88227e-05
-3.44811e-05
4.66026e-05
-4.87164e-05
4.69584e-05
-4.48446e-05
3.17822e-05
-5.83213e-06
-7.94729e-06
-1.80027e-05
4.56158e-06
1.51392e-06
-2.11147e-05
1.50392e-05
1.33959e-05
-5.28687e-05
-6.9164e-06
4.63891e-05
6.01721e-05
-5.28552e-05
1.30856e-06
-8.62539e-06
4.62715e-05
-4.97457e-05
-1.82166e-05
2.16908e-05
4.8978e-05
-4.48673e-05
-3.46827e-05
3.05719e-05
3.91881e-05
-3.29835e-05
-1.91298e-05
1.29252e-05
3.29616e-05
-5.38105e-05
2.5213e-05
-4.36405e-06
6.31361e-05
-4.85854e-05
-4.39138e-06
-1.01593e-05
3.18162e-05
-2.13528e-05
2.41491e-05
-3.46126e-05
1.68618e-05
-1.25983e-05
2.21374e-05
-2.6401e-05
1.41721e-05
-1.33934e-05
-7.78671e-07
-4.9115e-06
6.7692e-06
-5.67284e-06
3.81514e-06
-5.10273e-06
6.55692e-07
-1.55073e-05
1.99544e-05
3.49508e-06
-7.17593e-06
-2.14511e-05
2.5132e-05
1.09572e-05
-1.40827e-05
-1.93093e-05
2.24348e-05
1.42115e-05
-1.25926e-05
-5.40865e-05
5.24676e-05
1.94286e-05
-3.3581e-05
-3.18117e-05
4.59642e-05
4.61775e-05
-4.11188e-05
-2.23207e-06
-2.82659e-06
1.78218e-05
8.89087e-06
-3.91934e-05
1.24807e-05
-2.23835e-05
2.60425e-05
-9.36167e-06
5.70274e-06
-3.30659e-05
3.27986e-05
5.10572e-05
-5.07898e-05
-2.92439e-05
2.64651e-05
3.01439e-05
-2.73651e-05
-2.3056e-05
1.92022e-05
3.8242e-05
-3.43882e-05
-2.11826e-05
1.49689e-05
-9.78722e-06
1.60008e-05
-1.10099e-05
2.86443e-06
-7.50909e-05
8.32363e-05
-4.6871e-06
6.29926e-06
2.68009e-05
-2.84131e-05
1.16582e-05
-3.52318e-05
-5.20457e-05
7.56193e-05
4.02952e-05
-3.48704e-05
-2.59713e-05
2.05464e-05
1.32865e-05
8.47787e-06
1.22585e-05
-3.40228e-05
-2.07189e-05
3.40915e-05
-7.49457e-06
-5.87795e-06
-2.08095e-05
-1.47179e-05
-1.02713e-05
4.57987e-05
3.26433e-05
-3.84947e-05
3.56752e-05
-2.98238e-05
4.28921e-05
-5.52192e-05
2.23052e-05
-9.97814e-06
1.35718e-05
-1.89314e-05
5.3596e-06
-4.00768e-06
6.94115e-06
-1.01114e-06
-1.92233e-06
-6.57657e-06
2.4235e-06
-2.38059e-05
2.79589e-05
2.40233e-06
-5.70292e-06
-2.85335e-05
3.18341e-05
7.54024e-06
-9.14529e-06
-2.44403e-05
2.60453e-05
9.67906e-06
-4.61528e-06
-4.68971e-05
4.18334e-05
-1.43218e-06
-7.92878e-06
-6.27309e-05
7.20918e-05
2.15197e-05
-2.84457e-05
-3.41234e-06
1.03384e-05
2.12583e-05
-1.02502e-05
2.81726e-06
-1.38254e-05
-5.00403e-06
1.1565e-05
1.77773e-05
-2.43383e-05
1.79798e-05
-2.64181e-05
4.0544e-05
-3.21058e-05
7.85554e-06
6.38653e-06
4.25403e-05
-5.67824e-05
-1.75112e-05
2.34162e-05
3.19475e-05
-3.78526e-05
-2.00356e-05
-3.50937e-06
-3.59553e-05
5.95002e-05
1.76599e-05
8.81318e-07
-7.18408e-05
5.32996e-05
-4.41202e-06
-2.97461e-05
1.79071e-05
1.6251e-05
3.76892e-05
-2.10322e-05
-7.34395e-05
5.67825e-05
7.03529e-06
7.61301e-06
-9.934e-06
-4.71431e-06
-1.73628e-05
1.21535e-05
4.55448e-05
-4.03355e-05
-9.28627e-06
2.18626e-05
1.99958e-05
-3.25721e-05
-2.52284e-05
9.14434e-06
-7.36118e-05
8.96959e-05
1.21286e-05
-2.56719e-05
1.58776e-05
-2.3343e-06
4.55119e-05
-5.55279e-05
-9.16253e-06
1.91786e-05
2.77126e-05
-3.12501e-05
3.53746e-06
-1.25501e-05
1.09618e-05
3.06442e-06
-1.47616e-06
-7.64058e-06
4.89499e-06
-3.25113e-05
3.52569e-05
-2.01787e-06
3.06927e-07
-3.50422e-05
3.67532e-05
6.17474e-07
-2.95177e-06
-2.80592e-05
3.03934e-05
6.3134e-06
-7.54068e-06
-3.92728e-05
4.05001e-05
1.46587e-06
8.69001e-06
-6.97043e-05
5.95484e-05
-1.11335e-05
5.54839e-06
-1.50729e-05
2.06581e-05
-4.82042e-06
7.33709e-06
2.22365e-05
-2.47532e-05
6.07792e-06
-4.34096e-06
-6.09544e-06
4.35847e-06
1.37247e-05
-4.0394e-05
3.89042e-05
-1.2235e-05
4.43765e-05
-3.80006e-05
6.84876e-05
-7.48635e-05
2.80715e-05
-6.81961e-06
5.99777e-05
-8.12296e-05
-2.55511e-05
2.43944e-05
-7.33782e-05
7.45349e-05
-1.94059e-06
-2.20492e-06
-4.31188e-05
4.72643e-05
1.68557e-05
-4.18632e-05
-5.40161e-05
7.90236e-05
4.40901e-05
-2.48627e-05
-4.01962e-05
2.09688e-05
-6.14116e-06
3.77841e-05
3.05634e-05
-6.22064e-05
-5.72776e-05
5.98332e-05
3.91747e-05
-4.17303e-05
-3.05629e-05
1.64274e-05
3.55353e-05
-2.13998e-05
-2.96624e-05
3.51612e-05
-9.9582e-05
9.40832e-05
-1.03738e-05
-1.23898e-05
-9.0695e-06
3.18331e-05
1.28827e-05
-9.5124e-06
-2.43787e-05
2.10084e-05
2.33376e-05
-6.98583e-06
-1.63517e-05
1.74645e-05
-2.28805e-05
-2.04505e-06
7.46102e-06
2.46254e-05
-2.56536e-05
-3.46615e-05
3.56897e-05
2.85544e-05
-3.28229e-05
-3.66806e-05
4.09491e-05
3.38453e-05
-3.10302e-05
-3.48098e-05
3.19947e-05
2.79063e-05
-2.55834e-05
-4.20769e-05
3.97541e-05
2.18564e-05
-1.44858e-05
-5.08018e-05
4.34313e-05
3.89712e-06
1.77395e-05
-1.74382e-05
-4.19834e-06
-9.87819e-06
-1.36354e-05
2.65866e-06
2.08549e-05
2.07884e-05
-1.1713e-05
1.52123e-05
-2.42877e-05
-1.92324e-05
4.20424e-05
-2.14132e-07
-2.25959e-05
-3.79945e-05
2.07863e-05
6.19391e-05
-4.47309e-05
-6.53019e-07
-1.50506e-05
8.53228e-05
-6.96192e-05
4.03504e-06
2.4357e-05
-6.56918e-05
3.72997e-05
-1.63674e-05
-1.53423e-05
-6.30607e-05
9.47705e-05
3.28117e-05
-6.20152e-06
-7.63141e-05
4.97039e-05
-1.72282e-05
4.23172e-05
3.97527e-06
-2.90643e-05
-6.43558e-05
6.45379e-05
7.88593e-05
-7.90414e-05
-5.46708e-05
3.83534e-05
3.61001e-05
-1.97827e-05
-2.71161e-05
6.52583e-06
8.87276e-08
2.05015e-05
-1.59473e-05
5.11591e-05
-6.92507e-05
3.40388e-05
-7.22063e-05
6.01307e-05
-5.9811e-05
7.18866e-05
-3.79693e-05
2.74683e-05
-1.85809e-05
2.90819e-05
-6.32451e-06
1.49985e-05
-8.674e-06
2.1678e-05
-3.05158e-05
-1.72902e-05
2.6128e-05
4.84718e-05
-6.75645e-05
-5.02951e-05
6.93878e-05
7.63094e-05
-7.09948e-05
-3.5104e-05
2.97895e-05
6.13171e-05
-5.21461e-05
-2.27485e-05
1.35775e-05
4.01328e-05
-2.67544e-05
-3.32739e-05
1.98954e-05
1.73199e-05
1.22713e-06
-3.28223e-05
1.42752e-05
-7.39116e-06
-3.21519e-06
-1.19615e-06
1.18025e-05
1.31233e-05
-9.2887e-06
-1.26015e-05
8.76692e-06
1.82959e-06
1.95112e-05
3.60775e-05
-5.74183e-05
-3.84814e-05
5.36217e-05
4.24181e-05
-5.75584e-05
-5.84241e-05
5.0106e-05
3.01149e-05
-2.17968e-05
-4.2153e-05
3.1816e-05
4.68776e-05
-3.65406e-05
-7.68921e-06
3.00591e-05
5.17962e-06
-2.75496e-05
-7.36507e-05
7.00287e-05
-0.00012579
0.000129412
-4.53238e-05
4.0104e-05
-4.39815e-05
4.92012e-05
-6.35799e-05
6.08491e-05
6.34657e-05
-6.0735e-05
-3.94417e-05
1.42332e-05
6.29734e-05
-3.77649e-05
4.31011e-06
-5.25648e-06
4.7967e-06
-3.85033e-06
-7.9262e-06
2.06749e-05
-1.78439e-05
5.09516e-06
-2.44616e-05
3.32517e-05
-1.27177e-05
3.92759e-06
-5.00856e-05
6.46879e-05
-6.20701e-05
4.74678e-05
-6.76659e-05
6.14954e-05
-4.29695e-05
4.914e-05
-2.037e-05
2.54748e-05
-5.10487e-06
2.72722e-06
4.80829e-06
-1.95501e-05
1.20146e-05
-2.33196e-05
4.83217e-05
-7.90734e-05
5.40712e-05
-5.29034e-05
5.21567e-05
-4.11429e-05
4.18896e-05
-5.32156e-05
5.83437e-05
-5.53929e-06
4.11224e-07
-6.45689e-05
6.58389e-05
-2.37638e-06
1.10637e-06
-6.84345e-05
6.02464e-05
-5.77213e-06
1.39603e-05
-4.63968e-05
4.37239e-05
-2.07008e-05
2.33736e-05
-3.55249e-05
2.68484e-05
-1.81106e-05
2.67871e-05
-3.68741e-05
3.1122e-05
6.50253e-05
-5.92732e-05
-3.0782e-05
3.7259e-05
6.25859e-05
-6.90629e-05
-5.10002e-05
6.5559e-05
2.98261e-05
-4.43849e-05
-6.92312e-05
6.78349e-05
4.17405e-05
-4.03442e-05
-7.79292e-05
7.16416e-05
1.8255e-05
-1.19674e-05
-8.3067e-05
0.000109918
-0.000100553
7.37019e-05
-0.000109497
8.53424e-05
-5.76699e-05
8.18242e-05
-5.50414e-05
3.95936e-05
3.03937e-05
-1.49459e-05
-2.81424e-05
1.8157e-05
1.98504e-05
-9.86503e-06
-1.04523e-05
5.8187e-06
4.63826e-06
-4.67783e-09
-3.82604e-06
6.28972e-07
1.06544e-06
2.13163e-06
1.42338e-06
6.47502e-07
8.30968e-06
-1.03806e-05
-1.29444e-05
2.88534e-05
-3.8541e-05
2.2632e-05
-4.20316e-05
4.89582e-05
-4.70166e-05
4.009e-05
-2.47481e-05
2.34174e-05
1.33066e-06
-1.98232e-05
2.52152e-05
6.94891e-07
-6.08681e-06
-2.92789e-05
3.66753e-05
-2.878e-05
2.13836e-05
-6.33245e-05
9.57666e-05
-2.94931e-05
-2.94896e-06
-0.000108938
0.00011177
1.00066e-05
-1.28389e-05
-0.000115862
0.000119682
-8.92775e-06
5.10804e-06
-0.000112394
9.9819e-05
-2.93266e-05
4.19018e-05
-8.95187e-05
7.88988e-05
-2.97509e-05
4.03708e-05
-7.57846e-05
7.2297e-05
-2.39735e-05
2.7461e-05
-5.99074e-05
5.37988e-05
5.29021e-05
-4.67936e-05
-6.35558e-05
8.38864e-05
8.95124e-05
-0.000109843
-0.000104644
0.000118198
7.5875e-05
-8.94287e-05
-0.000121315
0.000111785
8.8295e-06
7.00614e-07
-9.40282e-05
8.30816e-05
1.16202e-05
-6.73575e-07
-7.77817e-05
7.24072e-05
-6.49456e-05
7.032e-05
-5.30046e-05
4.75001e-05
-9.84262e-05
0.000103931
-4.52185e-05
3.36581e-05
4.69084e-06
6.86958e-06
-2.27945e-05
1.77238e-05
1.35033e-06
3.72035e-06
-1.34106e-05
1.03554e-05
-4.49614e-06
7.5514e-06
-8.21131e-06
5.03224e-06
-1.19086e-05
1.50877e-05
5.66057e-06
-1.97378e-05
9.0752e-06
5.00205e-06
2.47411e-05
-2.07567e-05
-9.73927e-06
5.75491e-06
1.13898e-05
-1.80521e-06
-3.00984e-05
2.05137e-05
-2.4138e-05
2.38162e-05
3.21804e-07
6.1728e-06
-1.00055e-05
1.63552e-06
2.19716e-06
1.01267e-05
-4.99285e-06
-8.28551e-06
3.15164e-06
9.72945e-07
3.88709e-06
1.07409e-05
-1.5601e-05
-3.30725e-05
7.39084e-05
1.36367e-05
-5.44726e-05
-9.69283e-05
0.000102734
9.5216e-06
-1.53277e-05
-0.000102217
8.95574e-05
-3.36616e-05
4.63208e-05
-7.5362e-05
5.47676e-05
-4.70875e-05
6.7682e-05
-2.87516e-05
4.43457e-05
-3.4059e-05
1.84649e-05
-3.46961e-05
1.4558e-05
3.60463e-05
-1.59082e-05
1.52853e-05
-3.91822e-05
9.72106e-05
-7.33137e-05
5.04953e-05
-4.80693e-05
8.83116e-05
-9.07375e-05
2.9217e-05
-1.05987e-05
1.5763e-05
-3.43814e-05
-1.03125e-05
1.18985e-05
-2.16535e-06
5.79329e-07
5.45424e-06
-2.14412e-05
-8.65556e-05
0.000102543
2.23223e-06
1.99498e-05
-9.10574e-05