/*--------------------------------*- C++ -*----------------------------------*\
| =========                 |                                                 |
| \\      /  F ield         | OpenFOAM: The Open Source CFD Toolbox           |
|  \\    /   O peration     | Version:  v1912                                 |
|   \\  /    A nd           | Website:  www.openfoam.com                      |
|    \\/     M anipulation  |                                                 |
\*---------------------------------------------------------------------------*/
FoamFile
{
    version     2.0;
    format      ascii;
    class       volVectorField;
    location    "1";
    object      U;
}
// * * * * * * * * * * * * * * * * * * * * * * * * * * * * * * * * * * * * * //

dimensions      [0 1 -1 0 0 0 0];


internalField   nonuniform List<vector> 
9072
(
(0.00257071 -0.0221089 0)
(0.0788125 -0.0104192 0)
(0.0981142 0.00100078 0)
(0.081943 0.000395089 0)
(0.103966 -0.00707081 0)
(0.136617 -0.00583177 0)
(0.166794 -0.00264026 0)
(0.198195 -0.000823731 0)
(0.232407 -5.55821e-05 0)
(0.26982 -0.00309401 0)
(0.293299 -0.00614001 0)
(0.272002 -0.00525486 0)
(0.190619 0.0163923 0)
(0.0243741 0.0202353 0)
(-0.0421323 -0.000162756 0)
(-0.0401957 -0.00610339 0)
(0.0187507 -0.0163193 0)
(-0.00541492 0.0176325 0)
(-0.198489 0.0183512 0)
(-0.064586 -0.0223889 0)
(0.0463847 -0.00955099 0)
(0.0820702 -0.00116604 0)
(0.0569183 0.00390047 0)
(-0.0132198 -0.0107042 0)
(-0.0225309 -0.0132513 0)
(-0.00105017 -0.00413622 0)
(0.0320298 -0.000982536 0)
(0.0330211 -0.00702416 0)
(0.0587236 -0.0187877 0)
(0.108169 -0.0264314 0)
(0.165698 -0.030063 0)
(0.223076 -0.0285912 0)
(0.266879 -0.0202076 0)
(0.28284 0.0117333 0)
(0.247121 0.0374323 0)
(0.173942 0.0463424 0)
(0.119403 0.0562869 0)
(0.0575443 0.0278846 0)
(-0.0281316 0.00896476 0)
(-0.0674888 -0.0366009 0)
(-0.136352 0.11273 0)
(-0.21249 -0.0195016 0)
(-0.0497619 -0.0934938 0)
(0.0711702 -0.0460549 0)
(0.0985975 0.00648103 0)
(0.0493331 0.0275856 0)
(-0.0143112 0.00873801 0)
(-0.0422553 -0.0109362 0)
(-0.0279291 -0.0244601 0)
(0.0264325 -0.0151099 0)
(0.0584856 -0.0170697 0)
(0.0862891 -0.0352509 0)
(0.118957 -0.0471723 0)
(0.166 -0.0548733 0)
(0.223346 -0.0550106 0)
(0.279361 -0.0393005 0)
(0.314968 0.00418356 0)
(0.318208 0.0525842 0)
(0.277509 0.080767 0)
(0.216834 0.0863784 0)
(0.127686 0.0716273 0)
(0.0161052 0.0595116 0)
(-0.111907 -0.00334735 0)
(-0.231775 0.177971 0)
(-0.153222 -0.0950108 0)
(-0.0397428 -0.152121 0)
(0.100011 -0.0850787 0)
(0.119051 0.0226831 0)
(0.0466635 0.0596473 0)
(-0.014238 0.0334126 0)
(-0.0726924 0.00450899 0)
(-0.0596156 -0.0483922 0)
(-0.000577213 -0.0388672 0)
(0.0392183 -0.0319046 0)
(0.0683903 -0.048758 0)
(0.107517 -0.0674024 0)
(0.162398 -0.0817801 0)
(0.226996 -0.0850209 0)
(0.295564 -0.065483 0)
(0.344604 -0.0062057 0)
(0.341795 0.0653958 0)
(0.291849 0.107582 0)
(0.223149 0.122167 0)
(0.129381 0.122422 0)
(0.0143667 0.114045 0)
(-0.142078 0.0751213 0)
(-0.243912 0.181426 0)
(-0.107699 -0.161879 0)
(-0.0268609 -0.218027 0)
(0.180891 -0.130696 0)
(0.168558 0.0594272 0)
(0.0452315 0.0951279 0)
(-0.0141113 0.0639786 0)
(-0.0914261 0.0252636 0)
(-0.0727146 -0.0733264 0)
(-0.0225162 -0.0610779 0)
(0.0143177 -0.0474688 0)
(0.0490919 -0.0661853 0)
(0.0969388 -0.0919553 0)
(0.157521 -0.111477 0)
(0.232092 -0.120268 0)
(0.32653 -0.102386 0)
(0.392332 -0.0188897 0)
(0.37757 0.0827805 0)
(0.309217 0.138171 0)
(0.237539 0.161333 0)
(0.131023 0.177612 0)
(-0.000268488 0.168033 0)
(-0.132636 0.157083 0)
(-0.203607 0.151419 0)
(-0.110939 -0.188815 0)
(-0.0369838 -0.321077 0)
(0.173898 -0.222902 0)
(0.251134 0.133857 0)
(0.0366553 0.139723 0)
(-0.0117095 0.0948803 0)
(-0.0897558 0.0452906 0)
(-0.0726915 -0.0957349 0)
(-0.0335803 -0.0778412 0)
(-0.0045047 -0.0632732 0)
(0.0323378 -0.0865116 0)
(0.0845535 -0.119071 0)
(0.155972 -0.145745 0)
(0.251668 -0.167532 0)
(0.339461 -0.151698 0)
(0.465517 -0.0431705 0)
(0.430075 0.100224 0)
(0.302253 0.165791 0)
(0.209656 0.18313 0)
(0.143599 0.242136 0)
(-0.0115344 0.223077 0)
(-0.111774 0.219135 0)
(-0.157285 0.129307 0)
(-0.187746 -0.170184 0)
(-0.262144 -0.36218 0)
(-0.186649 -0.325249 0)
(0.135045 0.155107 0)
(0.0203568 0.196948 0)
(-0.00649774 0.11854 0)
(-0.0732792 0.0645621 0)
(-0.0657483 -0.115853 0)
(-0.0381143 -0.0868327 0)
(-0.0204637 -0.0774149 0)
(0.0146635 -0.107785 0)
(0.074037 -0.151505 0)
(0.170131 -0.188008 0)
(0.137458 -0.185599 0)
(0.235391 -0.246731 0)
(0.439614 -0.106305 0)
(0.509468 0.184262 0)
(0.358857 0.295746 0)
(0.0871922 0.240881 0)
(0.136215 0.292259 0)
(-0.0245547 0.281052 0)
(-0.106845 0.254742 0)
(-0.135376 0.13963 0)
(-0.293405 -0.0897096 0)
(-0.569914 -0.302313 0)
(-0.581034 -0.431648 0)
(-0.236166 0.0358708 0)
(-0.0478547 0.222785 0)
(0.000177016 0.129421 0)
(-0.0446194 0.0838423 0)
(-0.0481756 -0.133333 0)
(-0.0404808 -0.0861465 0)
(-0.0360966 -0.0881423 0)
(-0.00315554 -0.130155 0)
(0.0872319 -0.196819 0)
(-0.00138766 -0.154669 0)
(-0.274257 -0.126159 0)
(-0.43785 -0.263198 0)
(-0.280752 -0.246635 0)
(0.169309 0.194285 0)
(0.11075 0.341363 0)
(-0.00419816 0.218788 0)
(0.105352 0.326925 0)
(-0.0467582 0.340109 0)
(-0.122846 0.277729 0)
(-0.168824 0.181269 0)
(-0.385051 0.0415119 0)
(-0.715833 -0.195864 0)
(-0.848741 -0.493425 0)
(-0.631443 -0.151294 0)
(-0.161466 0.166771 0)
(0.0766668 -0.109844 0)
(0.178329 0.0178062 0)
(-0.0523645 0.0200454 0)
(0.0335994 0.00202138 0)
(-0.123906 -0.0138961 0)
(-0.116859 0.00720865 0)
(-0.477242 0.0392107 0)
(-0.468038 -0.000801317 0)
(-0.298917 0.0041245 0)
(-0.313836 -0.0209931 0)
(-0.0201871 -0.0833503 0)
(0.830538 -0.0988884 0)
(1.24973 0.00242581 0)
(0.568683 0.14557 0)
(-0.288514 0.0201099 0)
(-0.251555 -0.0753562 0)
(0.0399819 0.0022779 0)
(-0.454992 0.0313398 0)
(-0.235404 -0.0392431 0)
(0.0248878 -0.222698 0)
(0.148197 0.0857085 0)
(-0.166232 0.0255694 0)
(-0.024584 0.0529473 0)
(-0.294796 0.0526926 0)
(-0.633908 0.171331 0)
(-0.728695 0.0283721 0)
(-0.159514 -0.190466 0)
(-0.112392 0.000779916 0)
(-0.456624 0.0500188 0)
(-0.481667 -0.255226 0)
(0.127367 -0.46581 0)
(0.872006 -0.0274145 0)
(0.921785 0.35718 0)
(0.190926 0.339537 0)
(-0.153184 -0.0948435 0)
(-0.371017 0.151797 0)
(-0.592228 0.050244 0)
(-0.18932 -0.274505 0)
(-0.0504486 -0.214334 0)
(-0.156812 0.242468 0)
(-0.268181 -0.0316753 0)
(-0.217785 0.0711465 0)
(-0.428602 0.19723 0)
(-0.774458 0.282725 0)
(-0.314891 -0.23383 0)
(-0.0402612 -0.253041 0)
(-0.225717 0.124398 0)
(-0.540629 0.149503 0)
(-0.484755 -0.364865 0)
(-0.326679 -0.884307 0)
(0.495492 -0.171775 0)
(0.555684 0.345781 0)
(0.625156 0.615193 0)
(0.149515 0.0676845 0)
(-0.305982 0.243579 0)
(-0.372633 -0.00619981 0)
(-0.0995683 -0.424363 0)
(-0.0930594 -0.113971 0)
(-0.331419 0.367468 0)
(-0.358952 -0.0945402 0)
(-0.365108 0.107926 0)
(-0.514622 0.331436 0)
(-0.67489 0.245904 0)
(-0.176329 -0.436578 0)
(-0.163994 -0.212845 0)
(-0.270961 0.230471 0)
(-0.226873 0.0976955 0)
(0.040614 -0.219925 0)
(-0.209345 -1.07675 0)
(0.14352 -0.237151 0)
(0.384198 0.299917 0)
(0.518209 0.602841 0)
(0.40982 0.316077 0)
(-0.154361 0.31507 0)
(-0.142096 -0.0249358 0)
(-0.0930176 -0.493141 0)
(-0.0910724 0.0193099 0)
(-0.334201 0.435678 0)
(-0.4467 -0.0980254 0)
(-0.452136 0.113054 0)
(-0.472507 0.415078 0)
(-0.477668 0.128068 0)
(-0.286776 -0.491296 0)
(-0.298699 -0.200024 0)
(-0.238919 0.228976 0)
(0.22202 -0.256694 0)
(0.631047 -0.0675039 0)
(-0.203577 -0.984338 0)
(-0.0666156 -0.366872 0)
(0.174113 0.197255 0)
(0.407836 0.531241 0)
(0.382284 0.498969 0)
(-0.0569367 0.378195 0)
(-0.00226044 -0.0422369 0)
(-0.083246 -0.467077 0)
(-0.0768144 0.120889 0)
(-0.207213 0.46885 0)
(-0.3947 -0.0387707 0)
(-0.49162 0.117437 0)
(-0.559009 0.430553 0)
(-0.469651 0.0442586 0)
(-0.318079 -0.512815 0)
(-0.414848 -0.204487 0)
(-0.224264 0.138447 0)
(-0.0497597 -0.514453 0)
(0.500694 0.0529822 0)
(-0.352959 -0.759923 0)
(-0.352033 -0.450425 0)
(-0.110359 0.0530396 0)
(0.228075 0.492039 0)
(0.263895 0.589336 0)
(0.0700909 0.424602 0)
(0.0752688 -0.0281018 0)
(-0.00270323 -0.411175 0)
(-0.0828121 0.157079 0)
(-0.0764726 0.442928 0)
(-0.138422 0.147014 0)
(-0.495423 0.131114 0)
(-0.529088 0.448791 0)
(-0.45183 0.00367949 0)
(-0.307972 -0.533609 0)
(-0.438402 -0.184189 0)
(-0.306778 0.00901674 0)
(-0.216203 -0.535184 0)
(0.0538379 0.0886894 0)
(-0.453134 -0.573603 0)
(-0.553525 -0.517709 0)
(-0.286778 -0.0513044 0)
(0.00299313 0.386021 0)
(0.143425 0.602327 0)
(0.0513424 0.431377 0)
(0.107326 -0.0182831 0)
(0.143625 -0.371969 0)
(0.0578364 0.184376 0)
(0.0272131 0.388659 0)
(0.250506 0.3742 0)
(-0.429729 0.181939 0)
(-0.420685 0.429627 0)
(-0.339819 0.0287736 0)
(-0.351274 -0.57748 0)
(0.151285 -0.104137 0)
(0.13434 -0.0666307 0)
(0.48665 -0.390699 0)
(-0.11611 0.0667001 0)
(-0.538564 -0.490194 0)
(-0.639873 -0.529676 0)
(-0.488792 -0.200095 0)
(-0.159654 0.302738 0)
(0.0255148 0.525371 0)
(-0.00174557 0.434585 0)
(0.134427 -0.0842989 0)
(0.231776 -0.360752 0)
(0.00993165 0.109374 0)
(0.00706334 0.106206 0)
(-0.0215235 -0.135993 0)
(-0.0508561 -0.0755757 0)
(-0.0603727 -0.095865 0)
(-0.023629 -0.17529 0)
(-0.106875 -0.138497 0)
(-0.550018 0.131313 0)
(-0.817325 0.0441586 0)
(-0.945851 -0.257359 0)
(-0.941238 -0.422606 0)
(-0.593893 -0.0484799 0)
(-0.145777 0.344124 0)
(-0.0213823 0.319906 0)
(-0.0547688 0.283729 0)
(-0.0917692 0.400269 0)
(-0.147708 0.311956 0)
(-0.220141 0.254288 0)
(-0.365468 0.186613 0)
(-0.526235 -0.053136 0)
(-0.754351 -0.397312 0)
(-0.937392 -0.243078 0)
(-0.926357 -0.0953438 0)
(0.0202748 0.0578537 0)
(0.0543181 0.109873 0)
(0.0305743 -0.0819116 0)
(-0.0638993 -0.0295157 0)
(-0.114934 -0.0858057 0)
(-0.209749 -0.0753275 0)
(-0.655256 0.363038 0)
(-0.695761 0.316398 0)
(-0.581701 0.194001 0)
(-0.751279 -0.163211 0)
(-0.909714 -0.316476 0)
(-1.20694 -0.364574 0)
(-1.03592 -0.183917 0)
(-0.619056 0.0412176 0)
(-0.397349 0.24654 0)
(-0.229978 0.379419 0)
(-0.176696 0.367622 0)
(-0.224239 0.348052 0)
(-0.331315 0.271572 0)
(-0.293544 -0.200775 0)
(-0.121497 0.271452 0)
(-0.573251 -0.198043 0)
(-0.462899 0.217953 0)
(0.027511 -0.0258169 0)
(0.060326 0.0926591 0)
(0.0477062 -0.00542942 0)
(-0.0731041 0.0569822 0)
(-0.165868 -0.00147823 0)
(-0.378749 0.265741 0)
(-0.553569 0.421551 0)
(-0.30563 -0.148281 0)
(-0.0910936 0.19709 0)
(-0.667602 0.0434823 0)
(-0.704172 -0.147497 0)
(-0.262498 -0.0640681 0)
(-0.389494 -0.150129 0)
(-0.855105 -0.125571 0)
(-0.815697 0.0367263 0)
(-0.609079 0.168397 0)
(-0.42778 0.291727 0)
(-0.372952 0.421771 0)
(-0.376998 0.294062 0)
(-0.269782 -0.24482 0)
(-0.228578 0.113493 0)
(-0.0492734 0.124964 0)
(-0.280576 -0.1926 0)
(0.00711933 -0.115188 0)
(0.0925646 0.0841032 0)
(0.0612383 0.0875935 0)
(-0.0589799 0.161243 0)
(-0.16829 0.129138 0)
(-0.319021 0.500422 0)
(-0.41787 0.262827 0)
(-0.410731 -0.0443251 0)
(-0.850322 0.356384 0)
(-0.664446 0.000586197 0)
(-0.50935 -0.324828 0)
(-0.57215 -0.530633 0)
(-0.147485 0.0115506 0)
(-0.101209 0.224953 0)
(-0.480885 0.205322 0)
(-0.537713 -0.0725443 0)
(-0.544069 0.175122 0)
(-0.50462 0.356714 0)
(-0.397292 0.166049 0)
(-0.358539 -0.157291 0)
(-0.5615 -0.158395 0)
(-0.293876 -0.370769 0)
(-0.219775 -0.274725 0)
(-0.019817 -0.147757 0)
(0.0683392 0.0480355 0)
(0.0364449 0.192824 0)
(-0.0561384 0.251698 0)
(-0.137209 0.227736 0)
(-0.132231 0.587553 0)
(-0.281846 0.40679 0)
(-0.512743 -0.028577 0)
(-0.0357253 0.343815 0)
(0.254866 0.227114 0)
(0.403347 -0.553938 0)
(0.234936 -0.223619 0)
(0.235544 -0.411685 0)
(0.113569 0.107743 0)
(0.0575864 0.908477 0)
(-0.000937957 -0.34371 0)
(-0.285314 0.740333 0)
(-0.414606 0.24881 0)
(-0.00941273 -0.377517 0)
(0.357692 -0.041651 0)
(0.0840409 0.383282 0)
(-0.409196 -0.360532 0)
(-0.513325 -0.16996 0)
(0.0149528 -0.16028 0)
(0.0616877 -0.00825379 0)
(0.0602407 0.282828 0)
(-0.0491691 0.324832 0)
(-0.0848295 0.272869 0)
(-0.098752 0.475041 0)
(0.00651605 0.751458 0)
(-0.296618 0.0727083 0)
(-0.174724 -0.0835909 0)
(0.13191 -0.331625 0)
(-0.435152 -0.318326 0)
(-0.0161892 -0.554173 0)
(0.215905 -0.358708 0)
(0.0758172 0.486067 0)
(-0.0442345 0.65005 0)
(0.0123408 0.00234363 0)
(-0.328819 0.763187 0)
(-0.0157955 0.109418 0)
(0.222367 -0.453804 0)
(0.138178 -0.250095 0)
(0.241531 0.871837 0)
(-0.204729 -0.0833623 0)
(-0.597926 0.150176 0)
(0.037559 -0.354807 0)
(0.133768 -0.0434229 0)
(0.0755269 0.361819 0)
(0.00543652 0.394976 0)
(-0.0152568 0.313562 0)
(-0.0936957 0.418065 0)
(0.039786 0.711537 0)
(0.117324 0.183787 0)
(0.119643 -0.243889 0)
(-0.0810477 0.2109 0)
(-0.361799 -0.375473 0)
(-0.45529 -0.818143 0)
(-0.259394 -0.798253 0)
(0.407476 0.783201 0)
(-0.0144928 0.486149 0)
(-0.24536 0.670975 0)
(-0.374843 0.296634 0)
(0.29306 -0.545536 0)
(0.660452 -0.43031 0)
(0.0623714 -0.289771 0)
(0.393444 1.10145 0)
(-0.0507218 0.154766 0)
(-0.114595 0.273205 0)
(-0.0928737 -0.159991 0)
(-0.23344 0.0562808 0)
(-0.260604 0.408801 0)
(-0.312542 0.420682 0)
(-0.362561 0.396359 0)
(-0.288589 0.464506 0)
(-0.197483 0.509899 0)
(0.0128013 0.147327 0)
(-0.0130879 0.0949183 0)
(-0.192403 -0.260864 0)
(0.371113 -0.0841077 0)
(0.338277 -0.571808 0)
(-0.130643 -0.852833 0)
(0.222845 0.669233 0)
(-0.0464651 0.783595 0)
(-0.254185 0.62597 0)
(0.30876 -0.147364 0)
(0.72037 -0.914768 0)
(0.508556 -0.375484 0)
(0.110333 0.131605 0)
(0.348754 0.539385 0)
(0.783101 0.799807 0)
(0.315026 0.23296 0)
(-0.0622751 0.119453 0)
(-0.291811 0.230643 0)
(-0.632045 0.607127 0)
(-0.844866 0.332302 0)
(-0.613423 0.213047 0)
(-0.32808 0.324071 0)
(-0.14666 0.319742 0)
(0.038483 0.115841 0)
(-0.122979 0.0165489 0)
(0.0749815 -0.557099 0)
(0.484395 -0.549986 0)
(0.61821 -0.231085 0)
(0.471214 -0.350853 0)
(-0.0642818 -0.270334 0)
(0.83207 1.51384 0)
(0.38919 0.497063 0)
(0.744378 -0.712835 0)
(0.26826 -0.521805 0)
(-0.0800985 -0.00383247 0)
(0.15804 0.125378 0)
(0.293838 0.0909394 0)
(0.653061 0.576976 0)
(0.700313 0.523997 0)
(-0.0909897 0.246136 0)
(-0.0149136 0.219679 0)
(0.398686 0.796812 0)
(0.562391 0.54568 0)
(0.626364 0.0566426 0)
(0.718798 -0.0316313 0)
(0.679078 0.00334027 0)
(0.499239 0.210445 0)
(0.226082 0.253379 0)
(0.346832 -0.674933 0)
(0.354418 -0.672048 0)
(0.623461 -0.413955 0)
(0.745668 -0.543346 0)
(0.896525 -0.0862037 0)
(1.01368 0.901801 0)
(1.2116 0.73509 0)
(0.416818 -0.214449 0)
(0.244643 -0.177801 0)
(0.0753045 -0.0295789 0)
(0.0210866 -0.0143088 0)
(-0.0448225 -0.115447 0)
(0.254687 0.333881 0)
(0.4955 0.47044 0)
(-0.145856 0.273559 0)
(0.244692 -0.125062 0)
(0.339288 0.25912 0)
(0.911323 0.108467 0)
(1.17117 -0.183374 0)
(1.30017 0.0716138 0)
(1.13709 0.375027 0)
(0.919379 0.399812 0)
(0.863955 0.302447 0)
(0.556543 -0.522343 0)
(0.776424 -1.14814 0)
(1.15682 -0.985184 0)
(1.3991 0.0482595 0)
(0.906803 -0.0890876 0)
(0.818223 0.630427 0)
(0.516964 1.13653 0)
(0.482955 0.027226 0)
(0.210501 0.0184847 0)
(0.125499 0.0653946 0)
(0.0836076 0.162891 0)
(-0.150237 -0.0659063 0)
(-0.258713 0.0825917 0)
(-0.0648584 0.279122 0)
(-0.0936156 0.254808 0)
(-0.19935 -0.0231746 0)
(-0.0559284 -0.0257208 0)
(-0.000651876 -0.119809 0)
(0.602983 -0.281877 0)
(1.10015 -0.281728 0)
(1.07635 0.293558 0)
(0.813579 0.562811 0)
(0.211191 0.273504 0)
(0.366263 -0.29675 0)
(-0.334602 -0.882579 0)
(-0.603921 -0.84932 0)
(-0.180698 -0.0753544 0)
(0.163805 0.00143382 0)
(-0.225183 1.13568 0)
(0.159582 0.866636 0)
(0.208993 0.17785 0)
(0.179703 0.0940425 0)
(0.135285 0.114719 0)
(0.12131 0.154395 0)
(0.142436 0.177098 0)
(0.0750611 0.130548 0)
(0.0704289 0.103915 0)
(-0.0407527 0.311644 0)
(-0.662474 0.319997 0)
(-0.87589 -0.196663 0)
(-0.804864 -0.301416 0)
(-1.21702 -0.257792 0)
(-1.52331 -0.0351983 0)
(-1.32981 0.432753 0)
(-0.679887 0.457317 0)
(-0.509842 0.337084 0)
(-0.385425 -0.138452 0)
(-0.292389 -0.616893 0)
(-0.496675 -0.762158 0)
(-0.658617 -0.498072 0)
(-0.616604 -0.021991 0)
(-0.380944 0.752728 0)
(0.122637 0.514176 0)
(0.131378 0.180126 0)
(0.1361 0.118303 0)
(0.11779 0.13792 0)
(0.111184 0.148967 0)
(0.118858 0.147613 0)
(0.133129 0.136491 0)
(0.128304 0.11643 0)
(-0.085449 0.413959 0)
(-0.300378 1.01942 0)
(-0.353408 -0.00681612 0)
(-0.832433 -0.176534 0)
(-1.07344 0.0909188 0)
(-1.68915 0.0984344 0)
(-1.92929 0.227148 0)
(-1.49526 0.169859 0)
(-0.902683 -0.0510879 0)
(-0.492756 -0.415145 0)
(-0.319301 -0.640098 0)
(-0.204681 -0.736394 0)
(-0.121999 -0.606781 0)
(-0.150947 -0.0533911 0)
(-0.0968117 0.579812 0)
(-0.0653391 0.427798 0)
(0.0947695 0.131468 0)
(0.103547 0.127368 0)
(0.0999206 0.14402 0)
(0.104013 0.145196 0)
(0.110305 0.141644 0)
(0.113245 0.136104 0)
(0.108893 0.12765 0)
(-0.140218 0.580231 0)
(0.0142879 1.15339 0)
(-0.416742 0.454095 0)
(-1.05451 0.317948 0)
(-1.50498 0.432471 0)
(-1.52686 0.288385 0)
(-1.78907 0.0132501 0)
(-2.06707 -0.0769886 0)
(-1.62855 -0.530158 0)
(-0.968968 -0.803289 0)
(-0.528478 -0.835261 0)
(-0.339343 -0.847745 0)
(-0.201123 -0.606688 0)
(-0.160104 -0.069581 0)
(-0.160765 0.604152 0)
(-0.0143141 0.212094 0)
(0.0659414 0.064621 0)
(0.0845478 0.129214 0)
(0.0914111 0.137696 0)
(0.10193 0.13682 0)
(0.109285 0.137132 0)
(0.109509 0.138626 0)
(0.101708 0.138146 0)
(-0.132617 0.721928 0)
(0.021871 1.09389 0)
(-0.177227 1.22877 0)
(-0.996089 0.885103 0)
(-1.43046 0.663853 0)
(-2.295 0.967113 0)
(-3.16096 0.702374 0)
(-3.04888 -0.429534 0)
(-2.44232 -1.36507 0)
(-1.59948 -1.60916 0)
(-0.874777 -1.29934 0)
(-0.428906 -1.05451 0)
(-0.167694 -0.91196 0)
(0.17048 -0.0751942 0)
(0.244678 0.542644 0)
(0.244988 0.2233 0)
(0.121536 0.0511152 0)
(0.0919612 0.131144 0)
(0.0886894 0.12741 0)
(0.102595 0.124768 0)
(0.114077 0.132758 0)
(0.113328 0.144475 0)
(0.100807 0.152546 0)
(0.109723 0.503655 0)
(0.0632224 0.845536 0)
(-0.0821709 1.75531 0)
(-0.466602 1.48979 0)
(-1.10172 1.4184 0)
(-2.18407 2.01997 0)
(-2.48298 0.834405 0)
(-2.2466 -0.791312 0)
(-1.67648 -2.09842 0)
(-1.01035 -2.38131 0)
(-0.434513 -1.82859 0)
(-0.258938 -1.33417 0)
(0.0799951 -1.16317 0)
(0.330049 -0.632134 0)
(0.700031 0.567812 0)
(0.508154 0.425294 0)
(0.21196 0.19901 0)
(0.0805166 0.176881 0)
(0.0658807 0.116002 0)
(0.102924 0.100801 0)
(0.129999 0.124101 0)
(0.129177 0.154564 0)
(0.107662 0.174524 0)
(0.0380204 0.41707 0)
(-0.0542143 0.940512 0)
(-0.451999 1.96983 0)
(-0.105808 1.7959 0)
(-0.638496 2.26168 0)
(-1.08792 2.43541 0)
(-0.920658 0.695528 0)
(-0.45928 -1.20782 0)
(0.110575 -2.67623 0)
(0.438801 -2.81953 0)
(0.611164 -2.19128 0)
(0.695184 -1.39267 0)
(0.792838 -1.36355 0)
(0.59195 -0.792378 0)
(0.788623 0.552404 0)
(0.48346 0.764742 0)
(0.112089 0.470377 0)
(-0.0557465 0.250843 0)
(-0.0132713 0.0605886 0)
(0.114512 0.038387 0)
(0.174282 0.107858 0)
(0.165154 0.175243 0)
(0.123527 0.211042 0)
(-0.200787 0.719833 0)
(-0.173587 1.16312 0)
(0.0484265 1.66953 0)
(0.032687 1.89396 0)
(-0.108569 2.58322 0)
(0.176308 2.27917 0)
(0.699021 0.304142 0)
(1.36333 -1.76007 0)
(1.81814 -3.03438 0)
(1.53828 -2.80951 0)
(1.21634 -2.10121 0)
(1.09495 -1.43419 0)
(1.05479 -1.24237 0)
(0.851682 -0.58573 0)
(0.567409 0.762707 0)
(0.13569 1.1442 0)
(-0.192406 0.761706 0)
(-0.417202 0.316363 0)
(-0.196723 -0.150185 0)
(0.204178 -0.103836 0)
(0.288027 0.0967567 0)
(0.232282 0.227693 0)
(0.14491 0.274966 0)
(-0.217706 1.31411 0)
(-0.28777 0.719985 0)
(0.375648 1.43234 0)
(0.551785 2.05086 0)
(0.651661 2.26079 0)
(1.20906 1.74203 0)
(1.90461 -0.294218 0)
(2.63559 -2.34068 0)
(2.15219 -2.63474 0)
(1.40195 -2.22677 0)
(1.0089 -1.76827 0)
(1.0351 -1.52227 0)
(0.964938 -1.07478 0)
(0.677273 -0.316271 0)
(-0.0476221 1.36686 0)
(-0.304909 1.42171 0)
(-0.605416 1.1256 0)
(-0.602719 0.149212 0)
(-0.197613 -0.635261 0)
(0.0865071 -0.604276 0)
(0.517234 0.148428 0)
(0.328146 0.364451 0)
(0.152894 0.385873 0)
(0.0202603 1.65103 0)
(-0.149473 0.296679 0)
(0.155353 0.936691 0)
(0.602611 2.03476 0)
(0.762225 1.92337 0)
(1.29026 0.978271 0)
(2.30775 -1.25631 0)
(1.98056 -1.90342 0)
(1.272 -1.79917 0)
(1.21131 -1.91101 0)
(0.797551 -1.55777 0)
(0.453704 -1.56333 0)
(0.0446683 -0.641479 0)
(-0.582139 0.429182 0)
(-0.951208 1.68 0)
(-0.622821 1.44577 0)
(-0.535098 1.21808 0)
(-0.0852102 -0.32561 0)
(0.0897565 -0.800341 0)
(0.313466 -0.81669 0)
(0.421313 -0.148013 0)
(0.407898 0.665624 0)
(0.0997987 0.558439 0)
(-0.000221651 1.53324 0)
(0.0527974 0.514723 0)
(0.00482991 0.40468 0)
(0.390699 1.78898 0)
(0.438587 1.50937 0)
(1.27732 -0.0035044 0)
(1.29645 -1.04257 0)
(0.902693 -1.32285 0)
(1.45114 -2.10362 0)
(0.885038 -1.40954 0)
(0.266307 -0.913585 0)
(-0.532208 -0.963113 0)
(-1.19264 -0.281431 0)
(-1.54669 0.830306 0)
(-1.24029 1.2002 0)
(-0.691761 1.08163 0)
(0.004241 0.754396 0)
(0.590929 -0.510235 0)
(0.622478 -0.937631 0)
(0.592046 -0.814251 0)
(0.39311 -0.195232 0)
(0.251317 1.02453 0)
(-0.0717058 0.77085 0)
(-0.0171601 1.4014 0)
(-0.057677 0.545874 0)
(0.679286 0.269317 0)
(0.322859 1.85645 0)
(-0.0277666 1.15846 0)
(0.587314 -0.388983 0)
(0.586932 -0.776825 0)
(1.17951 -2.05247 0)
(0.502714 -1.46573 0)
(-0.039537 -0.8298 0)
(-0.211571 -0.383628 0)
(-1.23735 -0.10874 0)
(-1.62705 0.24326 0)
(-1.61097 0.697175 0)
(-1.3056 0.701915 0)
(-0.642031 0.299766 0)
(0.219889 -0.195283 0)
(0.664157 -0.723944 0)
(0.671109 -0.849274 0)
(0.381973 -0.65863 0)
(0.169968 0.0525934 0)
(-0.318489 1.32652 0)
(-0.365414 0.933375 0)
(0.0951894 1.10558 0)
(0.0194545 0.873892 0)
(-0.511141 0.303462 0)
(-0.175018 2.05349 0)
(0.171157 0.229118 0)
(0.30292 -0.44407 0)
(0.416075 -1.12121 0)
(0.186421 -1.62977 0)
(-0.530562 -0.786391 0)
(-0.704581 -0.58353 0)
(-1.21207 0.374004 0)
(-1.58074 0.199386 0)
(-1.51074 0.179497 0)
(-1.1927 0.473642 0)
(-0.918865 0.284763 0)
(-0.407932 -0.519726 0)
(-0.12035 -0.639713 0)
(-0.0722519 -0.772974 0)
(-0.179674 -0.782898 0)
(-0.534202 -0.268898 0)
(-0.909455 0.699433 0)
(-0.786767 1.18103 0)
(-0.585672 0.984593 0)
(0.073754 0.779587 0)
(0.250553 1.259 0)
(-1.07587 0.429824 0)
(-0.630119 1.72141 0)
(0.216474 -0.121301 0)
(0.158552 -0.398016 0)
(0.119684 -1.01841 0)
(-0.216495 -0.931273 0)
(-0.53906 -0.601436 0)
(-0.578586 -0.411474 0)
(-0.869214 0.599726 0)
(-0.911994 0.300339 0)
(-0.616329 0.0599563 0)
(-0.421907 0.150951 0)
(-0.329883 0.106477 0)
(-0.296204 -0.714234 0)
(-0.529222 -0.535588 0)
(-0.744123 -0.575244 0)
(-1.05585 -0.44191 0)
(-1.32858 0.0195328 0)
(-1.23012 0.623167 0)
(-0.796974 0.752978 0)
(-0.53081 0.857301 0)
(0.244945 0.306155 0)
(0.224059 1.41613 0)
(-0.184672 1.16015 0)
(-0.113675 0.985027 0)
(0.254649 -0.0814029 0)
(0.0392447 -0.290405 0)
(-0.0533596 -0.831623 0)
(-0.310613 -0.741015 0)
(-0.46549 -0.458617 0)
(-0.79789 -0.026561 0)
(-0.713917 0.683832 0)
(-0.364539 0.00169539 0)
(-0.113913 -0.260686 0)
(-0.101591 -0.0413548 0)
(-0.150734 0.146914 0)
(-0.258378 -0.391405 0)
(-0.540524 -0.345681 0)
(-0.709748 -0.347912 0)
(-0.898591 -0.235918 0)
(-0.993664 0.0129356 0)
(-0.869871 0.296597 0)
(-0.654096 0.470874 0)
(-0.415282 0.579636 0)
(0.137112 0.132458 0)
(0.111478 1.53675 0)
(0.0694894 1.35523 0)
(0.00620844 0.682028 0)
(0.0713362 0.00363434 0)
(-0.0875664 -0.188912 0)
(-0.273392 -0.541369 0)
(-0.532077 -0.494724 0)
(-0.710794 -0.290521 0)
(-0.738302 0.0327546 0)
(-0.455578 0.16812 0)
(-0.1794 -0.23337 0)
(-0.419028 -0.251094 0)
(-0.456152 0.122153 0)
(-0.38634 0.0685906 0)
(-0.457326 -0.118769 0)
(-0.518458 -0.217062 0)
(-0.618039 -0.209814 0)
(-0.702283 -0.130434 0)
(-0.730536 0.013885 0)
(-0.671173 0.175229 0)
(-0.544103 0.290434 0)
(-0.38049 0.348728 0)
(-0.00580255 0.0572791 0)
(0.0931971 1.66253 0)
(-0.0899365 1.23817 0)
(-0.11942 0.698392 0)
(-0.162926 0.0544694 0)
(-0.185501 -0.100566 0)
(-0.386287 -0.304555 0)
(-0.600503 -0.30645 0)
(-0.705051 -0.216517 0)
(-0.720397 -0.139527 0)
(-0.694197 -0.00654963 0)
(-0.723809 -0.0485548 0)
(-0.7722 -0.0660779 0)
(-0.722653 0.0190275 0)
(-0.579275 -0.022896 0)
(-0.53444 -0.111444 0)
(-0.549319 -0.155406 0)
(-0.583197 -0.148457 0)
(-0.610572 -0.0941613 0)
(-0.606224 -0.00480983 0)
(-0.55599 0.0928882 0)
(-0.468588 0.170929 0)
(-0.365663 0.216168 0)
(-0.0257313 0.351824 0)
(0.0517705 1.67912 0)
(-0.0202333 1.26592 0)
(-0.118242 0.798804 0)
(-0.245202 0.103729 0)
(-0.266142 -0.0609706 0)
(-0.431334 -0.102422 0)
(-0.618166 -0.130109 0)
(-0.77466 -0.115182 0)
(-0.853775 -0.0712045 0)
(-0.846378 -0.0456998 0)
(-0.806133 -0.0726011 0)
(-0.770116 -0.0925179 0)
(-0.704137 -0.0866982 0)
(-0.62531 -0.10392 0)
(-0.57757 -0.133717 0)
(-0.559291 -0.147662 0)
(-0.555678 -0.134711 0)
(-0.550141 -0.094475 0)
(-0.527946 -0.0348364 0)
(-0.482052 0.0301754 0)
(-0.415095 0.0866974 0)
(-0.336565 0.130074 0)
(-0.0443311 0.216251 0)
(0.228027 1.62219 0)
(0.0728319 1.30217 0)
(0.0769307 1.05158 0)
(-0.0451103 0.23504 0)
(-0.239642 0.0321339 0)
(-0.438101 0.0630135 0)
(-0.613364 0.0377936 0)
(-0.756858 0.00964557 0)
(-0.842796 -0.0188764 0)
(-0.863243 -0.0596961 0)
(-0.837427 -0.109514 0)
(-0.784766 -0.144612 0)
(-0.714494 -0.158833 0)
(-0.644216 -0.167529 0)
(-0.590414 -0.172819 0)
(-0.554726 -0.1681 0)
(-0.52993 -0.148869 0)
(-0.506029 -0.115011 0)
(-0.474096 -0.0707264 0)
(-0.429509 -0.0232038 0)
(-0.373259 0.0195904 0)
(-0.307563 0.052202 0)
(-0.173903 0.30809 0)
(-0.201036 1.6831 0)
(0.0493945 1.27515 0)
(0.104641 0.977068 0)
(0.0390165 0.406995 0)
(-0.202278 0.2763 0)
(-0.460824 0.26852 0)
(-0.657839 0.208582 0)
(-0.812605 0.133687 0)
(-0.911905 0.0424991 0)
(-0.941387 -0.0627728 0)
(-0.901183 -0.160178 0)
(-0.817311 -0.219503 0)
(-0.724762 -0.237763 0)
(-0.645056 -0.234367 0)
(-0.584082 -0.222177 0)
(-0.538795 -0.20376 0)
(-0.502862 -0.178463 0)
(-0.469416 -0.146519 0)
(-0.432547 -0.110082 0)
(-0.388717 -0.0724889 0)
(-0.337524 -0.037631 0)
(-0.282078 -0.0104339 0)
(-0.144137 0.372839 0)
(-0.295065 1.5013 0)
(-0.0486464 1.23446 0)
(0.0528101 0.952983 0)
(-0.0216915 0.590442 0)
(-0.270196 0.535451 0)
(-0.535932 0.496278 0)
(-0.756867 0.397727 0)
(-0.936184 0.275177 0)
(-1.05564 0.117112 0)
(-1.08443 -0.0777381 0)
(-1.00227 -0.251795 0)
(-0.852503 -0.334867 0)
(-0.716023 -0.336201 0)
(-0.62292 -0.308198 0)
(-0.558201 -0.276099 0)
(-0.511358 -0.245614 0)
(-0.472581 -0.21488 0)
(-0.436025 -0.182985 0)
(-0.397607 -0.150625 0)
(-0.355003 -0.118919 0)
(-0.307869 -0.0892128 0)
(-0.257664 -0.06321 0)
(-0.0392013 0.284632 0)
(-0.0339444 1.54598 0)
(0.131473 1.08047 0)
(0.0824902 1.03543 0)
(-0.0779948 0.908979 0)
(-0.368739 0.81091 0)
(-0.670866 0.748339 0)
(-0.928126 0.614817 0)
(-1.13569 0.44034 0)
(-1.32902 0.224494 0)
(-1.45379 -0.0843686 0)
(-1.3323 -0.40981 0)
(-1.03081 -0.553001 0)
(-0.761335 -0.480685 0)
(-0.631041 -0.392925 0)
(-0.550883 -0.335086 0)
(-0.493026 -0.289387 0)
(-0.448462 -0.25321 0)
(-0.408501 -0.220993 0)
(-0.368359 -0.191253 0)
(-0.326084 -0.163139 0)
(-0.281577 -0.136513 0)
(-0.2354 -0.112309 0)
(0.0126355 0.21119 0)
(0.0609154 1.47514 0)
(0.0370589 1.18014 0)
(0.063297 1.00448 0)
(-0.256369 1.2952 0)
(-0.517143 1.13465 0)
(-0.834998 1.03014 0)
(-1.07434 0.849714 0)
(-1.34748 0.70904 0)
(-1.67723 0.481899 0)
(-1.68454 -0.172609 0)
(-1.40084 -0.764221 0)
(-1.10725 -0.931788 0)
(-0.813725 -0.723595 0)
(-0.662537 -0.49216 0)
(-0.583945 -0.414238 0)
(-0.506001 -0.349932 0)
(-0.443083 -0.301837 0)
(-0.39089 -0.26471 0)
(-0.344303 -0.234229 0)
(-0.300195 -0.206684 0)
(-0.257245 -0.180825 0)
(-0.214507 -0.157499 0)
(-0.0789845 0.172561 0)
(-0.124213 1.38259 0)
(-0.0389285 1.23785 0)
(0.047331 1.06238 0)
(-0.379492 1.57854 0)
(-0.673954 1.48759 0)
(-1.00455 1.31212 0)
(-1.24099 1.07418 0)
(-1.43182 0.982538 0)
(-1.39313 0.481391 0)
(-1.04342 -0.40972 0)
(-0.878608 -0.912523 0)
(-0.813215 -1.0599 0)
(-0.77383 -0.958055 0)
(-0.652198 -0.56568 0)
(-0.573783 -0.490146 0)
(-0.498888 -0.42654 0)
(-0.428452 -0.365504 0)
(-0.368384 -0.318392 0)
(-0.317429 -0.281482 0)
(-0.27295 -0.250122 0)
(-0.232352 -0.222334 0)
(-0.193541 -0.198516 0)
(-0.155221 0.207267 0)
(-0.197555 1.40885 0)
(-0.038954 0.882151 0)
(0.0615092 1.47171 0)
(-0.369477 1.86888 0)
(-0.756647 1.86505 0)
(-1.07546 1.5809 0)
(-1.27414 1.25796 0)
(-1.24738 0.930182 0)
(-0.976002 0.180489 0)
(-0.920157 -0.525726 0)
(-0.83012 -1.02485 0)
(-0.687819 -1.11877 0)
(-0.670665 -0.950038 0)
(-0.642822 -0.684506 0)
(-0.513617 -0.569333 0)
(-0.439516 -0.499085 0)
(-0.378273 -0.428241 0)
(-0.325813 -0.372189 0)
(-0.280505 -0.327473 0)
(-0.240881 -0.290699 0)
(-0.204924 -0.259876 0)
(-0.171047 -0.234646 0)
(-0.0635585 0.198579 0)
(0.157137 1.6445 0)
(-0.193329 0.37518 0)
(0.0639693 1.88666 0)
(-0.339793 2.21638 0)
(-0.734858 2.23611 0)
(-1.02245 1.82146 0)
(-1.1564 1.31035 0)
(-1.0755 0.736376 0)
(-1.18354 0.170352 0)
(-0.957752 -0.719594 0)
(-0.539761 -1.23202 0)
(-0.409897 -1.20901 0)
(-0.391357 -0.883795 0)
(-0.453098 -0.777281 0)
(-0.422325 -0.663713 0)
(-0.351428 -0.559773 0)
(-0.307441 -0.477632 0)
(-0.270086 -0.414954 0)
(-0.236116 -0.36536 0)
(-0.204644 -0.325076 0)
(-0.17502 -0.291967 0)
(-0.146872 -0.265233 0)
(0.0121002 0.0802994 0)
(0.202558 1.67807 0)
(0.221505 0.642684 0)
(0.0158679 2.02212 0)
(-0.220467 2.5826 0)
(-0.626669 2.57843 0)
(-0.890897 2.02318 0)
(-1.00906 1.34325 0)
(-1.24863 0.931702 0)
(-1.37286 0.0872355 0)
(-0.809148 -1.32512 0)
(-0.407192 -1.53456 0)
(-0.241112 -1.29497 0)
(-0.0745054 -0.960689 0)
(0.04196 -0.598998 0)
(-0.237633 -0.666105 0)
(-0.246527 -0.597225 0)
(-0.229502 -0.507703 0)
(-0.209888 -0.44335 0)
(-0.18818 -0.392904 0)
(-0.165661 -0.351775 0)
(-0.143126 -0.31774 0)
(-0.121124 -0.289956 0)
(-0.0411284 -0.00164206 0)
(0.0966561 1.74205 0)
(-0.118862 0.990302 0)
(-0.297101 1.6649 0)
(-0.00934031 3.03787 0)
(-0.509341 2.91387 0)
(-0.748717 2.20349 0)
(-0.911956 1.55237 0)
(-1.16782 1.15806 0)
(-0.900161 -0.347263 0)
(-0.435366 -1.76938 0)
(-0.428244 -1.66569 0)
(-0.406886 -1.42597 0)
(-0.241417 -1.25076 0)
(0.12175 -0.690523 0)
(0.0664361 -0.363354 0)
(-0.140697 -0.586111 0)
(-0.155332 -0.513842 0)
(-0.152111 -0.457269 0)
(-0.140622 -0.410335 0)
(-0.12586 -0.370561 0)
(-0.109943 -0.336812 0)
(-0.0938783 -0.308631 0)
(-0.0493201 0.207925 0)
(-0.00624548 1.8637 0)
(-0.432821 1.36111 0)
(-0.565363 1.37482 0)
(-0.0294762 3.32376 0)
(-0.522714 3.20411 0)
(-0.671974 2.3634 0)
(-0.80072 1.74627 0)
(-0.754164 1.00528 0)
(-0.281585 -0.693843 0)
(-0.0833809 -1.79528 0)
(-0.287017 -1.58517 0)
(-0.324233 -1.44649 0)
(-0.320785 -1.40772 0)
(-0.236311 -1.04333 0)
(0.0583311 -0.217025 0)
(-0.082249 -0.498812 0)
(-0.104944 -0.502646 0)
(-0.105871 -0.461984 0)
(-0.0989195 -0.421002 0)
(-0.0890161 -0.383447 0)
(-0.0780535 -0.350407 0)
(-0.0668928 -0.322134 0)