# vtk DataFile Version 2.0
gauge_2
ASCII
DATASET POLYDATA
POINTS 85 double
0.2 0.0329993 0.005
0.2 0.0359992 0.005
0.2 0.0389992 0.005
0.2 0.0419991 0.005
0.2 0.044999 0.005
0.2 0.047999 0.005
0.2 0.0543799 0.005
0.2 0.0607609 0.005
0.2 0.0671419 0.005
0.2 0.0735228 0.005
0.2 0.0799038 0.005
0.2 0.0862847 0.005
0.2 0.0926657 0.005
0.2 0.0990467 0.005
0.2 0.105428 0.005
0.2 0.111809 0.005
0.2 0.11819 0.005
0.2 0.124571 0.005
0.2 0.130952 0.005
0.2 0.137332 0.005
0.2 0.143713 0.005
0.2 0.150094 0.005
0.2 0.156475 0.005
0.2 0.162856 0.005
0.2 0.169237 0.005
0.2 0.175618 0.005
0.2 0.181999 0.005
0.2 0.18838 0.005
0.2 0.194761 0.005
0.2 0.201142 0.005
0.2 0.207523 0.005
0.2 0.213904 0.005
0.2 0.220285 0.005
0.2 0.226666 0.005
0.2 0.233047 0.005
0.2 0.239428 0.005
0.2 0.245809 0.005
0.2 0.25219 0.005
0.2 0.258571 0.005
0.2 0.264952 0.005
0.2 0.271333 0.005
0.2 0.277714 0.005
0.2 0.284095 0.005
0.2 0.290476 0.005
0.2 0.296857 0.005
0.2 0.303238 0.005
0.2 0.309619 0.005
0.2 0.315999 0.005
0.2 0.32238 0.005
0.2 0.328761 0.005
0.2 0.335142 0.005
0.2 0.341523 0.005
0.2 0.347904 0.005
0.2 0.354285 0.005
0.2 0.360666 0.005
0.2 0.367047 0.005
0.2 0.373428 0.005
0.2 0.379809 0.005
0.2 0.38619 0.005
0.2 0.392571 0.005
0.2 0.398952 0.005
0.2 0.405333 0.005
0.2 0.411714 0.005
0.2 0.418095 0.005
0.2 0.424476 0.005
0.2 0.430857 0.005
0.2 0.437238 0.005
0.2 0.443619 0.005
0.2 0.45 0.005
0.2 0.456381 0.005
0.2 0.462762 0.005
0.2 0.469143 0.005
0.2 0.475524 0.005
0.2 0.481905 0.005
0.2 0.488286 0.005
0.2 0.494666 0.005
0.2 0.501047 0.005
0.2 0.507428 0.005
0.2 0.513809 0.005
0.2 0.52019 0.005
0.2 0.526571 0.005
0.2 0.532952 0.005
0.2 0.539333 0.005
0.2 0.545714 0.005
0.2 0.552095 0.005
POINT_DATA 85
 FIELD attributes 1
alpha.water 1 85 float
0.698334 0.447907 0.228454 0.0993811 0.042688 0.0207527 0.00677919 0.00168799 0.0005632 0.0001913 6.04212e-05 1.87516e-05 5.66843e-06 1.67911e-06 5.00856e-07 1.45239e-07 4.35862e-08 1.24273e-08 3.71854e-09 9.21709e-10 4.61804e-10 2.55551e-10 1.80818e-10 1.12879e-10 7.41249e-11 5.07519e-11 3.35987e-11 2.03245e-11 1.14351e-11 6.23481e-12 3.29772e-12 1.65387e-12 7.8898e-13 3.699e-13 1.75446e-13 8.41402e-14 3.99418e-14 1.82965e-14 7.91077e-15 3.12458e-15 1.04536e-15 2.66239e-16 4.63335e-17 5.19781e-18 3.05834e-19 1.25411e-20 7.74137e-22 3.63196e-23 9.59812e-25 2.03457e-27 1.05102e-28 3.7808e-30 1.44604e-31 2.35242e-33 -1.55759e-31 -1.90354e-31 -3.77543e-32 -3.31471e-33 -1.49644e-34 -3.15099e-36 -1.49665e-38 -7.21764e-42 -4.12375e-47 -5.27185e-49 -6.02995e-51 -3.77321e-53 -1.09138e-55 -1.92044e-58 -2.88725e-61 -2.12896e-65 -3.58101e-69 -7.99547e-73 -6.35828e-79 2.68597e-86 1.56984e-89 -1.15762e-90 -3.71972e-93 -1.63934e-95 -7.41865e-98 -2.25793e-100 -5.79523e-103 -1.06647e-105 -1.30315e-108 -1.22309e-111 -8.509e-115
