# vtk DataFile Version 2.0
gauge_2
ASCII
DATASET POLYDATA
POINTS 85 double
0.2 0.0329993 0.005
0.2 0.0359992 0.005
0.2 0.0389992 0.005
0.2 0.0419991 0.005
0.2 0.044999 0.005
0.2 0.047999 0.005
0.2 0.0543799 0.005
0.2 0.0607609 0.005
0.2 0.0671419 0.005
0.2 0.0735228 0.005
0.2 0.0799038 0.005
0.2 0.0862847 0.005
0.2 0.0926657 0.005
0.2 0.0990467 0.005
0.2 0.105428 0.005
0.2 0.111809 0.005
0.2 0.11819 0.005
0.2 0.124571 0.005
0.2 0.130952 0.005
0.2 0.137332 0.005
0.2 0.143713 0.005
0.2 0.150094 0.005
0.2 0.156475 0.005
0.2 0.162856 0.005
0.2 0.169237 0.005
0.2 0.175618 0.005
0.2 0.181999 0.005
0.2 0.18838 0.005
0.2 0.194761 0.005
0.2 0.201142 0.005
0.2 0.207523 0.005
0.2 0.213904 0.005
0.2 0.220285 0.005
0.2 0.226666 0.005
0.2 0.233047 0.005
0.2 0.239428 0.005
0.2 0.245809 0.005
0.2 0.25219 0.005
0.2 0.258571 0.005
0.2 0.264952 0.005
0.2 0.271333 0.005
0.2 0.277714 0.005
0.2 0.284095 0.005
0.2 0.290476 0.005
0.2 0.296857 0.005
0.2 0.303238 0.005
0.2 0.309619 0.005
0.2 0.315999 0.005
0.2 0.32238 0.005
0.2 0.328761 0.005
0.2 0.335142 0.005
0.2 0.341523 0.005
0.2 0.347904 0.005
0.2 0.354285 0.005
0.2 0.360666 0.005
0.2 0.367047 0.005
0.2 0.373428 0.005
0.2 0.379809 0.005
0.2 0.38619 0.005
0.2 0.392571 0.005
0.2 0.398952 0.005
0.2 0.405333 0.005
0.2 0.411714 0.005
0.2 0.418095 0.005
0.2 0.424476 0.005
0.2 0.430857 0.005
0.2 0.437238 0.005
0.2 0.443619 0.005
0.2 0.45 0.005
0.2 0.456381 0.005
0.2 0.462762 0.005
0.2 0.469143 0.005
0.2 0.475524 0.005
0.2 0.481905 0.005
0.2 0.488286 0.005
0.2 0.494666 0.005
0.2 0.501047 0.005
0.2 0.507428 0.005
0.2 0.513809 0.005
0.2 0.52019 0.005
0.2 0.526571 0.005
0.2 0.532952 0.005
0.2 0.539333 0.005
0.2 0.545714 0.005
0.2 0.552095 0.005
POINT_DATA 85
 FIELD attributes 1
alpha.water 1 85 float
1 1 1 1 1 1 1 1 1 0.984758 0.69126 0.206505 5.19881e-08 1.01465e-07 2.27509e-07 1.75794e-07 2.62298e-08 2.34739e-09 2.28771e-11 1.60452e-11 1.01575e-11 9.88949e-12 1.74992e-11 6.32354e-11 1.41355e-10 1.90326e-10 1.7326e-10 3.05507e-10 2.10273e-09 9.54462e-09 1.6116e-08 1.54225e-08 3.98194e-08 7.43009e-08 4.93295e-08 8.35786e-09 5.49517e-10 7.7321e-11 2.26696e-11 -1.52754e-10 3.19682e-07 1.52669e-06 4.62417e-06 6.10697e-06 6.99376e-06 6.03627e-06 1.7491e-06 1.9733e-08 3.12709e-09 4.51028e-10 5.81715e-11 6.49036e-12 6.99343e-13 4.78497e-14 4.23323e-15 2.22462e-16 5.11276e-18 3.06034e-19 1.92971e-20 1.0318e-21 4.44741e-23 2.2399e-24 6.65555e-26 2.97796e-27 6.39317e-29 2.79172e-30 5.26742e-32 2.19259e-33 4.83862e-35 1.76236e-36 3.07883e-38 4.40792e-40 -1.56838e-39 -1.75102e-39 -9.50999e-40 -3.634e-40 -1.10633e-40 -2.86005e-41 -6.57607e-42 -1.39155e-42 -2.77144e-43 -5.25691e-44 -9.53533e-45 -1.65357e-45 -2.73727e-46
