# vtk DataFile Version 2.0
gauge_2
ASCII
DATASET POLYDATA
POINTS 85 double
0.2 0.0329993 0.005
0.2 0.0359992 0.005
0.2 0.0389992 0.005
0.2 0.0419991 0.005
0.2 0.044999 0.005
0.2 0.047999 0.005
0.2 0.0543799 0.005
0.2 0.0607609 0.005
0.2 0.0671419 0.005
0.2 0.0735228 0.005
0.2 0.0799038 0.005
0.2 0.0862847 0.005
0.2 0.0926657 0.005
0.2 0.0990467 0.005
0.2 0.105428 0.005
0.2 0.111809 0.005
0.2 0.11819 0.005
0.2 0.124571 0.005
0.2 0.130952 0.005
0.2 0.137332 0.005
0.2 0.143713 0.005
0.2 0.150094 0.005
0.2 0.156475 0.005
0.2 0.162856 0.005
0.2 0.169237 0.005
0.2 0.175618 0.005
0.2 0.181999 0.005
0.2 0.18838 0.005
0.2 0.194761 0.005
0.2 0.201142 0.005
0.2 0.207523 0.005
0.2 0.213904 0.005
0.2 0.220285 0.005
0.2 0.226666 0.005
0.2 0.233047 0.005
0.2 0.239428 0.005
0.2 0.245809 0.005
0.2 0.25219 0.005
0.2 0.258571 0.005
0.2 0.264952 0.005
0.2 0.271333 0.005
0.2 0.277714 0.005
0.2 0.284095 0.005
0.2 0.290476 0.005
0.2 0.296857 0.005
0.2 0.303238 0.005
0.2 0.309619 0.005
0.2 0.315999 0.005
0.2 0.32238 0.005
0.2 0.328761 0.005
0.2 0.335142 0.005
0.2 0.341523 0.005
0.2 0.347904 0.005
0.2 0.354285 0.005
0.2 0.360666 0.005
0.2 0.367047 0.005
0.2 0.373428 0.005
0.2 0.379809 0.005
0.2 0.38619 0.005
0.2 0.392571 0.005
0.2 0.398952 0.005
0.2 0.405333 0.005
0.2 0.411714 0.005
0.2 0.418095 0.005
0.2 0.424476 0.005
0.2 0.430857 0.005
0.2 0.437238 0.005
0.2 0.443619 0.005
0.2 0.45 0.005
0.2 0.456381 0.005
0.2 0.462762 0.005
0.2 0.469143 0.005
0.2 0.475524 0.005
0.2 0.481905 0.005
0.2 0.488286 0.005
0.2 0.494666 0.005
0.2 0.501047 0.005
0.2 0.507428 0.005
0.2 0.513809 0.005
0.2 0.52019 0.005
0.2 0.526571 0.005
0.2 0.532952 0.005
0.2 0.539333 0.005
0.2 0.545714 0.005
0.2 0.552095 0.005
POINT_DATA 85
 FIELD attributes 1
alpha.water 1 85 float
1 1 1 1 1 1 1 1 1 0.999997 0.999954 0.998371 0.947815 0.622689 0.187222 0.0142524 0.000333482 2.39875e-05 9.78732e-07 3.05536e-08 2.06534e-09 5.08912e-10 3.38629e-10 3.1082e-10 2.9984e-10 2.70039e-10 2.19054e-10 1.5726e-10 1.01288e-10 6.16338e-11 3.56991e-11 1.88762e-11 9.06978e-12 4.1207e-12 1.8213e-12 7.37482e-13 2.52961e-13 7.69857e-14 2.12146e-14 5.16536e-15 1.08667e-15 2.03627e-16 3.95343e-17 7.92302e-18 1.06922e-18 4.42924e-20 7.55902e-23 1.50753e-25 3.5042e-27 1.58483e-29 2.77495e-31 4.08541e-33 4.67277e-35 4.58326e-37 -1.85829e-33 -3.27548e-33 -1.78365e-33 -4.02973e-34 -3.76423e-35 -1.1357e-36 -7.31851e-39 -4.61578e-43 -5.0648e-45 -1.37908e-46 -2.48083e-48 -2.72887e-50 -2.21165e-52 -9.34013e-55 -2.89783e-57 -3.11789e-60 -1.614e-66 -2.21457e-69 -1.28082e-73 -2.19896e-79 -2.2901e-81 -1.76243e-83 -9.21388e-86 -3.04828e-88 -8.50115e-91 -1.61167e-93 -2.00457e-96 -2.20352e-99 -2.94958e-102 -3.23714e-105 -2.55381e-108
