# vtk DataFile Version 2.0
gauge_2
ASCII
DATASET POLYDATA
POINTS 85 double
0.2 0.0329993 0.005
0.2 0.0359992 0.005
0.2 0.0389992 0.005
0.2 0.0419991 0.005
0.2 0.044999 0.005
0.2 0.047999 0.005
0.2 0.0543799 0.005
0.2 0.0607609 0.005
0.2 0.0671419 0.005
0.2 0.0735228 0.005
0.2 0.0799038 0.005
0.2 0.0862847 0.005
0.2 0.0926657 0.005
0.2 0.0990467 0.005
0.2 0.105428 0.005
0.2 0.111809 0.005
0.2 0.11819 0.005
0.2 0.124571 0.005
0.2 0.130952 0.005
0.2 0.137332 0.005
0.2 0.143713 0.005
0.2 0.150094 0.005
0.2 0.156475 0.005
0.2 0.162856 0.005
0.2 0.169237 0.005
0.2 0.175618 0.005
0.2 0.181999 0.005
0.2 0.18838 0.005
0.2 0.194761 0.005
0.2 0.201142 0.005
0.2 0.207523 0.005
0.2 0.213904 0.005
0.2 0.220285 0.005
0.2 0.226666 0.005
0.2 0.233047 0.005
0.2 0.239428 0.005
0.2 0.245809 0.005
0.2 0.25219 0.005
0.2 0.258571 0.005
0.2 0.264952 0.005
0.2 0.271333 0.005
0.2 0.277714 0.005
0.2 0.284095 0.005
0.2 0.290476 0.005
0.2 0.296857 0.005
0.2 0.303238 0.005
0.2 0.309619 0.005
0.2 0.315999 0.005
0.2 0.32238 0.005
0.2 0.328761 0.005
0.2 0.335142 0.005
0.2 0.341523 0.005
0.2 0.347904 0.005
0.2 0.354285 0.005
0.2 0.360666 0.005
0.2 0.367047 0.005
0.2 0.373428 0.005
0.2 0.379809 0.005
0.2 0.38619 0.005
0.2 0.392571 0.005
0.2 0.398952 0.005
0.2 0.405333 0.005
0.2 0.411714 0.005
0.2 0.418095 0.005
0.2 0.424476 0.005
0.2 0.430857 0.005
0.2 0.437238 0.005
0.2 0.443619 0.005
0.2 0.45 0.005
0.2 0.456381 0.005
0.2 0.462762 0.005
0.2 0.469143 0.005
0.2 0.475524 0.005
0.2 0.481905 0.005
0.2 0.488286 0.005
0.2 0.494666 0.005
0.2 0.501047 0.005
0.2 0.507428 0.005
0.2 0.513809 0.005
0.2 0.52019 0.005
0.2 0.526571 0.005
0.2 0.532952 0.005
0.2 0.539333 0.005
0.2 0.545714 0.005
0.2 0.552095 0.005
POINT_DATA 85
 FIELD attributes 1
alpha.water 1 85 float
1 1 1 1 1 1 1 1 1 0.985685 0.693009 0.207327 5.17077e-08 5.12731e-08 8.16341e-08 1.53428e-07 1.09725e-07 1.22965e-08 1.58612e-11 1.32719e-11 1.17141e-11 1.28236e-11 3.84654e-11 1.21595e-10 2.07593e-10 2.30333e-10 2.70592e-10 2.11053e-09 3.15911e-07 3.31607e-06 6.43492e-06 5.15726e-06 3.65146e-06 2.30745e-06 3.8556e-07 5.55575e-09 6.29021e-10 2.78712e-10 1.02481e-10 -1.92992e-10 4.71685e-06 0.000209772 0.00112749 0.00337693 0.00488985 0.00355415 0.00116629 4.9917e-05 2.73377e-06 4.37821e-07 6.21763e-08 7.81617e-09 8.64408e-10 5.28886e-11 1.64437e-12 1.26102e-13 5.41171e-15 3.42215e-16 1.60736e-17 9.41656e-19 2.11967e-20 1.09586e-21 2.04313e-23 1.0041e-24 2.0558e-26 9.41093e-28 1.64563e-29 6.75786e-31 8.06441e-33 3.12236e-34 3.58182e-36 1.24673e-37 -1.80545e-39 -3.18132e-39 -2.60382e-39 -9.78518e-40 -3.00978e-40 -8.21324e-41 -2.02976e-41 -4.61656e-42 -9.81158e-43 -1.97498e-43 -3.80386e-44 -7.05275e-45 -1.26183e-45
