# vtk DataFile Version 2.0
gauge_2
ASCII
DATASET POLYDATA
POINTS 85 double
0.2 0.0329993 0.005
0.2 0.0359992 0.005
0.2 0.0389992 0.005
0.2 0.0419991 0.005
0.2 0.044999 0.005
0.2 0.047999 0.005
0.2 0.0543799 0.005
0.2 0.0607609 0.005
0.2 0.0671419 0.005
0.2 0.0735228 0.005
0.2 0.0799038 0.005
0.2 0.0862847 0.005
0.2 0.0926657 0.005
0.2 0.0990467 0.005
0.2 0.105428 0.005
0.2 0.111809 0.005
0.2 0.11819 0.005
0.2 0.124571 0.005
0.2 0.130952 0.005
0.2 0.137332 0.005
0.2 0.143713 0.005
0.2 0.150094 0.005
0.2 0.156475 0.005
0.2 0.162856 0.005
0.2 0.169237 0.005
0.2 0.175618 0.005
0.2 0.181999 0.005
0.2 0.18838 0.005
0.2 0.194761 0.005
0.2 0.201142 0.005
0.2 0.207523 0.005
0.2 0.213904 0.005
0.2 0.220285 0.005
0.2 0.226666 0.005
0.2 0.233047 0.005
0.2 0.239428 0.005
0.2 0.245809 0.005
0.2 0.25219 0.005
0.2 0.258571 0.005
0.2 0.264952 0.005
0.2 0.271333 0.005
0.2 0.277714 0.005
0.2 0.284095 0.005
0.2 0.290476 0.005
0.2 0.296857 0.005
0.2 0.303238 0.005
0.2 0.309619 0.005
0.2 0.315999 0.005
0.2 0.32238 0.005
0.2 0.328761 0.005
0.2 0.335142 0.005
0.2 0.341523 0.005
0.2 0.347904 0.005
0.2 0.354285 0.005
0.2 0.360666 0.005
0.2 0.367047 0.005
0.2 0.373428 0.005
0.2 0.379809 0.005
0.2 0.38619 0.005
0.2 0.392571 0.005
0.2 0.398952 0.005
0.2 0.405333 0.005
0.2 0.411714 0.005
0.2 0.418095 0.005
0.2 0.424476 0.005
0.2 0.430857 0.005
0.2 0.437238 0.005
0.2 0.443619 0.005
0.2 0.45 0.005
0.2 0.456381 0.005
0.2 0.462762 0.005
0.2 0.469143 0.005
0.2 0.475524 0.005
0.2 0.481905 0.005
0.2 0.488286 0.005
0.2 0.494666 0.005
0.2 0.501047 0.005
0.2 0.507428 0.005
0.2 0.513809 0.005
0.2 0.52019 0.005
0.2 0.526571 0.005
0.2 0.532952 0.005
0.2 0.539333 0.005
0.2 0.545714 0.005
0.2 0.552095 0.005
POINT_DATA 85
 FIELD attributes 1
alpha.water 1 85 float
1 1 1 0.999999 0.999994 0.999588 0.979969 0.793028 0.397649 0.0980007 0.0142147 0.00131863 0.000106523 1.73274e-05 2.86027e-06 4.7774e-07 1.87906e-07 5.2138e-08 3.19464e-09 3.52504e-10 4.76593e-10 5.90349e-10 4.23051e-10 2.55189e-10 1.7153e-10 1.16843e-10 7.87523e-11 5.18551e-11 3.24074e-11 1.89849e-11 1.03436e-11 5.27643e-12 2.58235e-12 1.23173e-12 5.71902e-13 2.57295e-13 1.14879e-13 5.31641e-14 2.46841e-14 1.04133e-14 3.87855e-15 1.22377e-15 2.87513e-16 4.37831e-17 3.54139e-18 1.21417e-19 9.33082e-24 6.49226e-25 9.1921e-28 2.27898e-29 4.87249e-31 7.68726e-33 8.44659e-35 7.65239e-37 -3.0693e-32 -4.29308e-32 -1.39622e-32 -1.82084e-33 -9.77947e-35 -1.40437e-36 -4.7044e-39 -2.35196e-42 -2.17554e-46 -3.74018e-48 -4.70347e-50 -3.06416e-52 -1.2325e-54 -3.32417e-57 -1.71718e-60 -9.00465e-65 -4.38712e-68 -4.21519e-72 -1.55763e-78 -1.03213e-82 -1.29417e-84 -7.45029e-87 -2.58193e-89 -5.44962e-92 -9.97183e-95 -1.84039e-97 -3.3465e-100 -5.56037e-103 -7.87661e-106 -8.64118e-109 -6.20146e-112
