/*--------------------------------*- C++ -*----------------------------------*\
| =========                 |                                                 |
| \\      /  F ield         | OpenFOAM: The Open Source CFD Toolbox           |
|  \\    /   O peration     | Version:  v1912                                 |
|   \\  /    A nd           | Website:  www.openfoam.com                      |
|    \\/     M anipulation  |                                                 |
\*---------------------------------------------------------------------------*/
FoamFile
{
    version     2.0;
    format      ascii;
    class       volScalarField;
    location    "0.7";
    object      alpha.water;
}
// * * * * * * * * * * * * * * * * * * * * * * * * * * * * * * * * * * * * * //

dimensions      [0 0 0 0 0 0 0];


internalField   nonuniform List<scalar> 
9072
(
1
1
1
1
1
1
1
1
1
1
1
1
1
1
1
0.99418
0.935459
0.999985
0.999684
0.991014
0.999009
0.999824
0.99994
1
1
1
1
1
1
1
1
1
1
1
1
1
1
1
0.997896
0.935399
0.999998
0.999983
0.996891
0.960061
0.90974
0.999999
1
1
1
1
1
1
1
1
1
1
1
1
1
1
1
1
0.999996
0.999794
1
0.999396
0.843256
0.844369
0.999843
1
1
1
1
1
1
1
1
1
1
1
1
1
1
1
1
1
1
1
0.999773
0.854065
0.999998
0.999978
1
1
1
1
1
1
1
1
1
1
1
1
1
1
1
1
1
1
1
1
1
1
1
1
1
1
1
1
1
1
1
1
1
1
1
1
1
1
1
1
1
1
1
1
1
1
1
1
1
1
0.984215
0.993534
1
1
1
1
1
1
1
1
1
1
1
1
1
1
1
1
1
0.965286
1
0.986568
0.834662
0.837387
1
1
1
1
1
1
1
1
1
1
1
1
1
1
1
1
1
1
0.934119
0.93409
0.920535
0.948872
0.872068
0.963236
0.998052
0.998055
0.980292
0.976
0.991479
0.936977
0.939972
0.977634
0.977634
0.977499
0.954845
0.949842
0.896101
0.928009
0.0943338
0.170092
0.049654
0.00109752
0.672789
0.998041
0.998055
0.998055
0.997882
0.98768
0.971734
0.976516
0.781252
0.824467
0.904955
0.964715
0.969396
0.825791
0.922861
0.00998398
4.76269e-05
4.74075e-05
0.000110017
0.947515
0.998041
0.998055
0.998055
0.998055
0.996742
0.749761
0.00123177
0.000842124
0.000891543
0.001217
0.00420809
0.333119
0.994584
0.922862
0.0246036
7.18947e-05
6.72778e-05
0.439972
0.997737
0.99805
0.998054
0.998038
0.998056
0.996449
0.00264097
0.00119655
0.000842134
0.00091801
0.00145427
0.00476774
0.0128088
0.978957
0.599744
0.000397898
0.000169714
0.0696416
0.993489
0.996228
0.997989
0.998052
0.998053
0.998055
0.859289
0.00140845
0.00140713
0.00140611
0.00342972
0.676592
0.79706
0.0574154
0.776957
0.150827
0.000349202
0.0270932
0.994211
0.99362
0.959165
0.378279
0.997953
0.998049
0.99742
0.241315
0.00143964
0.00141037
0.109302
0.954201
0.930056
0.898078
0.882579
0.90529
0.0249238
0.000792611
0.994308
0.995783
0.992983
0.00185371
0.00145182
0.997778
0.997793
0.982156
0.00245781
0.00161388
0.614813
0.969858
0.966665
0.16927
0.0170265
0.0615594
0.984838
0.83088
0.99776
0.997423
0.995268
0.0438732
0.000575206
0.00286203
0.995336
0.759303
0.0441309
0.0112419
0.893525
0.970324
0.970324
0.180494
0.681376
0.0123855
0.0129968
0.982078
0.0334443
0.370045
0.276269
0.202123
0.314541
0.78282
0.96669
1
1
1
1
1
1
1
1
1
1
1
1
1
1
1
1
1.89722e-05
6.58228e-06
4.30576e-07
-9.43614e-09
-4.41834e-12
3.78461e-09
6.46651e-07
0.0637035
0.332171
0.751367
0.953784
1
1
1
1
1
1
1
1
1
1
1
0.999985
5.13512e-06
3.00638e-08
1.96994e-09
1.27665e-09
3.47394e-11
5.72611e-09
1.65081e-05
6.95692e-07
1.30256e-08
2.78873e-08
0.00229548
0.124429
0.395595
0.655137
0.828797
0.932837
0.996053
0.999999
1
1
0.999997
0.999941
0.686585
6.9312e-07
0.00014445
1.05815e-09
7.45337e-12
4.29163e-12
3.03389e-11
4.09668e-07
3.87945e-05
3.2705e-07
2.43356e-06
1.51038e-06
1.52883e-07
1.71508e-07
1.99636e-07
9.68353e-08
2.48503e-07
7.53486e-06
0.0453525
0.214726
0.756607
0.999564
0.699044
0.0383069
5.46076e-07
2.94027e-05
2.82439e-06
9.36181e-11
0
6.7946e-13
4.87054e-11
3.70071e-09
3.77385e-07
7.77544e-08
3.07557e-07
1.07621e-06
1.10655e-05
1.10655e-05
6.48002e-08
6.45038e-08
7.5849e-08
4.75844e-07
8.44666e-06
0.000192737
0.311445
0.167198
0.187061
3.35182e-10
9.34824e-09
3.63791e-06
7.49386e-09
-1.59595e-14
2.27492e-14
3.53352e-12
5.66682e-11
3.27728e-08
5.32339e-08
1.26256e-06
9.3409e-07
2.49423e-08
2.4912e-08
8.02129e-09
1.07718e-06
1.08854e-06
5.09647e-07
7.75888e-07
1.29336e-05
0.000332217
0.0794146
0.141005
8.96441e-12
6.51601e-11
8.97715e-10
2.0085e-09
-3.34534e-14
4.99545e-14
3.53152e-12
1.23241e-10
1.01373e-07
2.51868e-08
1.63414e-07
5.78978e-09
5.19034e-08
1.49654e-08
1.51543e-10
1.4766e-08
9.97679e-08
2.13978e-06
0.000436738
0.000199014
0.000525782
0.0989741
0.0138771
2.62686e-13
1.76653e-12
8.06286e-12
3.86539e-12
-4.24377e-14
4.45544e-14
3.40209e-12
2.13901e-10
6.36031e-10
2.47405e-09
5.92601e-10
3.32011e-09
1.23234e-08
2.23947e-10
5.16798e-11
4.10849e-10
2.78885e-08
4.17792e-06
0.000423927
0.00024556
0.000843921
0.100819
0.000272196
2.51396e-16
6.20922e-14
3.84458e-13
1.96019e-14
-2.90342e-14
2.6812e-14
9.31943e-13
3.646e-11
1.36845e-09
2.33031e-09
2.80865e-10
1.15062e-09
1.35091e-09
3.85491e-10
2.23282e-11
7.15056e-11
2.72714e-09
9.72466e-07
3.16247e-06
3.96844e-05
0.00200261
0.076839
0.000266636
-8.31527e-15
1.00884e-15
1.70865e-15
-2.10815e-15
-1.54552e-14
1.05643e-15
3.32312e-13
5.70855e-11
3.1529e-10
7.09309e-11
9.95933e-12
1.02457e-11
2.7207e-12
8.58297e-12
6.31501e-11
2.13943e-10
4.15517e-10
1.41674e-08
1.2625e-06
8.12375e-05
0.0290917
0.0548261
0.000265603
-9.08542e-15
1.05927e-18
-2.69896e-16
-3.94629e-15
-6.88044e-15
2.17221e-16
7.67724e-13
9.01035e-12
2.30185e-12
3.82507e-13
4.46092e-13
2.44537e-13
1.83593e-12
5.89312e-11
1.70442e-10
1.8721e-10
1.9278e-10
4.60245e-09
5.31718e-07
3.89327e-05
0.00807922
0.0690054
0.000265603
-6.89014e-15
-2.63387e-17
-4.50254e-16
-2.15696e-15
-2.63981e-15
2.85174e-15
2.36517e-13
1.3485e-13
4.29249e-14
1.14247e-13
9.67095e-14
1.67336e-13
4.30299e-12
1.12095e-11
4.24511e-11
-2.50073e-11
8.59759e-05
0.000106028
8.0149e-05
0.000106385
0.00162955
0.0761164
0.00085574
-4.63829e-15
-1.87177e-17
-2.43519e-16
-9.00296e-16
-9.57285e-16
1.37478e-15
6.46647e-15
2.71448e-15
1.10686e-14
1.95978e-14
3.53792e-14
1.52103e-12
5.33713e-11
3.33472e-09
3.2833e-06
0.000180316
0.000179201
2.85469e-06
3.63959e-06
2.53132e-05
0.000277958
0.0651411
0.0868172
-2.97585e-15
-8.18571e-18
-9.92811e-17
-3.29261e-16
-3.42765e-16
8.52462e-18
1.03614e-16
3.371e-16
1.3395e-15
3.69804e-15
6.18125e-13
1.91949e-11
9.96752e-10
8.45139e-08
0.000112004
0.000180316
5.12727e-07
7.26373e-08
3.43152e-07
5.1381e-06
7.10674e-05
0.00619478
0.0925515
-1.86393e-15
-2.82905e-18
-3.46892e-17
-1.10226e-16
-1.15792e-16
-1.60815e-17
4.0068e-18
4.14148e-17
1.43814e-16
1.07912e-14
2.8675e-12
4.40399e-11
1.60182e-09
9.91274e-08
2.94736e-05
1.16096e-05
3.93634e-08
3.94222e-08
8.51261e-08
9.84665e-06
1.57435e-05
0.000235954
0.0397527
-1.14021e-15
-8.35188e-19
-1.08813e-17
-3.44014e-17
-3.69143e-17
-9.10795e-18
1.22071e-19
3.11409e-18
1.38789e-16
4.32014e-14
5.91462e-12
7.16308e-11
3.28526e-09
3.40602e-07
7.38156e-08
3.81404e-08
3.61475e-08
3.62256e-08
4.22562e-08
2.9542e-07
2.74731e-06
3.63599e-05
0.00085779
-6.70784e-16
-2.18587e-19
-3.13174e-18
-1.00968e-17
-1.11942e-17
-3.45867e-18
-6.63344e-21
1.28453e-18
3.29697e-16
5.17535e-14
1.73365e-12
1.96437e-11
2.1322e-09
2.84196e-08
-1.04337e-07
-1.03376e-07
0.0181562
0.0188095
8.23202e-05
2.8349e-05
0.0109901
0.0841101
0.0852266
-3.71271e-16
-5.18798e-20
-8.35929e-19
-2.79582e-18
-3.24139e-18
-1.16233e-18
-1.74646e-22
5.79771e-19
3.289e-16
6.23983e-14
6.87383e-11
8.89385e-09
5.09688e-07
1.92387e-05
0.00362852
0.0235682
0.0233275
0.0175595
0.000289224
0.00124483
0.00646072
0.00163175
0.0075459
-1.90431e-16
-1.13289e-20
-2.0774e-19
-7.29775e-19
-8.95135e-19
-3.65015e-19
1.46038e-21
4.66226e-18
1.79051e-15
4.70773e-13
2.25455e-10
2.47776e-08
1.49474e-06
5.14794e-05
0.00509517
0.0235682
0.0230813
0.000543156
0.0007133
0.00190389
0.00492422
6.55542e-05
0.00058782
-9.02218e-17
-2.28552e-21
-4.79955e-20
-1.78818e-19
-2.34497e-19
-1.08562e-19
5.31412e-21
6.55693e-18
3.35217e-15
1.32255e-12
7.53877e-11
9.21354e-09
4.75779e-07
1.34679e-05
0.000283844
0.0115876
0.00126364
0.000211346
0.00506149
0.00506149
0.00228697
6.79802e-06
8.24176e-06
-3.95731e-17
-4.2315e-22
-1.02534e-20
-4.08594e-20
-5.77762e-20
-3.05054e-20
6.6712e-22
1.27962e-18
6.56754e-16
2.52534e-13
1.58477e-11
3.32607e-09
4.19113e-07
3.40159e-05
0.00794436
0.00742559
5.00568e-05
5.01513e-05
0.00494079
3.82672e-06
6.16837e-06
3.55871e-05
4.08902e-05
-1.60917e-17
-7.09963e-23
-2.01033e-21
-8.63652e-21
-1.32451e-20
-8.00385e-21
-3.91762e-22
9.37283e-20
8.7518e-17
8.4305e-14
2.49924e-11
3.91157e-09
5.04045e-07
0.00208189
0.00796872
0.00792269
3.36575e-05
3.48438e-05
1.10139e-05
1.60429e-06
2.79467e-06
7.23377e-06
1.38823e-08
-6.0671e-18
-1.06387e-23
-3.58636e-22
-1.67394e-21
-2.79119e-21
-1.93122e-21
-3.88812e-22
3.18008e-21
2.83834e-18
7.91413e-15
7.61957e-12
1.96054e-09
5.19294e-07
0.000103243
0.00506606
0.00747291
0.000817381
8.28931e-05
2.66406e-05
5.23864e-06
4.43543e-08
1.57968e-08
4.28736e-08
-2.12079e-18
-1.40334e-24
-5.77764e-23
-2.95227e-22
-5.34045e-22
-4.21109e-22
-1.18903e-22
4.87588e-23
8.18922e-20
7.63746e-17
1.53713e-13
3.84037e-12
6.29568e-10
4.90734e-07
2.11001e-05
1.9175e-05
5.06747e-06
6.31847e-06
2.81108e-06
1.52364e-06
4.47492e-07
9.51297e-11
6.13663e-11
-6.87311e-19
-1.64641e-25
-8.45713e-24
-4.71448e-23
-9.15653e-23
-8.1399e-23
-2.91062e-23
1.93431e-25
2.08574e-21
3.76895e-18
1.85127e-15
2.16354e-13
4.23487e-11
2.09104e-08
6.16689e-07
6.33783e-07
2.55116e-07
5.0489e-08
1.85931e-09
8.69935e-10
2.85766e-10
1.81061e-10
7.29501e-11
-2.06165e-19
-7.99813e-25
-1.12067e-24
-6.7824e-24
-1.39727e-23
-1.38027e-23
-6.00106e-24
-2.96585e-25
3.12314e-23
8.46406e-20
8.8344e-17
5.52043e-15
1.16321e-12
6.01234e-10
1.26635e-08
1.1586e-08
3.08725e-09
7.77861e-10
5.05316e-10
2.48682e-10
9.97392e-11
1.75824e-11
1.76825e-12
-5.71741e-20
-2.72419e-24
-1.34092e-25
-8.74947e-25
-1.88841e-24
-2.03894e-24
-1.04228e-24
-1.69568e-25
2.93973e-25
8.82267e-22
1.48468e-18
1.50788e-16
2.01281e-14
9.1166e-12
2.06813e-10
2.16253e-10
1.56327e-10
1.02838e-10
4.09389e-11
1.51727e-11
2.72152e-12
1.84381e-13
8.18261e-15
-1.46326e-20
-2.81228e-24
-1.52095e-26
-1.00779e-25
-2.25169e-25
-2.61307e-25
-1.52322e-25
-3.70564e-26
2.29894e-27
4.90902e-24
7.35486e-21
4.20837e-19
-8.12866e-18
2.74765e-14
1.16833e-12
5.16368e-12
3.65759e-12
1.39455e-12
4.43713e-13
1.10229e-13
1.4883e-14
7.85738e-16
2.68259e-17
-3.44601e-21
-1.67464e-24
-2.29077e-27
-1.03251e-26
-2.36205e-26
-2.89986e-26
-1.87575e-26
-5.76363e-27
-1.89862e-30
5.58952e-26
2.1491e-23
7.50179e-21
5.94391e-19
2.0062e-16
6.36008e-15
2.81996e-14
2.04995e-14
7.78358e-15
2.18262e-15
5.1581e-16
5.85218e-17
2.27425e-18
6.29798e-20
-7.44723e-22
-6.92247e-25
-6.72105e-28
-9.38464e-28
-2.17613e-27
-2.78615e-27
-1.95286e-27
-7.01771e-28
-7.06039e-29
5.91166e-28
3.48441e-25
6.3246e-23
5.86995e-21
1.68077e-18
7.44271e-17
1.91412e-16
1.31515e-16
5.03155e-17
1.17062e-17
1.85922e-18
1.54444e-19
4.42557e-21
9.43931e-23
-1.47474e-22
-2.13535e-25
-2.32479e-28
-7.57611e-29
-1.75973e-28
-2.32049e-28
-1.72697e-28
-6.93021e-29
-1.24553e-29
3.82215e-31
2.24885e-27
4.58039e-25
3.66225e-23
7.1956e-21
3.03758e-19
8.02233e-19
5.76891e-19
1.88081e-19
4.01686e-20
5.11888e-21
2.8861e-22
5.71998e-24
9.11786e-26
-2.67357e-23
-5.1283e-26
-6.42486e-29
-5.49597e-30
-1.24988e-29
-1.67952e-29
-1.30459e-29
-5.661e-30
-1.26252e-30
-7.24073e-34
6.89587e-30
1.97873e-27
1.31783e-25
2.10811e-23
9.4755e-22
2.37184e-21
1.92087e-21
5.65081e-22
9.52262e-23
9.34069e-24
3.70406e-25
5.07547e-27
6.1872e-29
-4.42488e-24
-1.03147e-26
-1.36546e-29
-3.71512e-31
-7.81222e-31
-1.06023e-30
-8.473e-31
-3.88049e-31
-9.70001e-32
-5.33312e-33
1.64757e-32
8.7023e-30
3.65151e-28
5.70993e-26
2.15469e-24
5.435e-24
4.86262e-24
1.21355e-24
1.51515e-25
1.1516e-26
3.40812e-28
3.11664e-30
2.57819e-33
-6.6366e-25
-1.95647e-27
-2.44608e-30
-2.54681e-32
-4.31094e-32
-5.86499e-32
-4.76546e-32
-2.26004e-32
-6.0348e-33
-7.43649e-34
7.41457e-35
3.86709e-32
1.70138e-30
1.91812e-28
5.43301e-27
1.38121e-26
1.07495e-26
2.16657e-27
2.10006e-28
1.10315e-29
2.14984e-31
1.80313e-34
-2.39641e-32
-8.91195e-26
-3.86534e-28
-4.35778e-31
-2.08541e-33
-2.11106e-33
-2.85989e-33
-2.33954e-33
-1.13146e-33
-3.13495e-34
-4.81654e-35
-3.05709e-38
1.42578e-34
5.50297e-33
4.89714e-31
1.63586e-29
2.61162e-29
1.90661e-29
3.17414e-30
2.21532e-31
7.35389e-33
1.74558e-35
-7.35918e-34
-1.20615e-31
-1.0567e-26
-7.70359e-29
-8.93739e-32
-2.52699e-34
-9.26305e-35
-1.23823e-34
-1.01145e-34
-4.92545e-35
-1.38746e-35
-2.33678e-36
-2.53962e-37
3.96635e-37
1.44171e-35
1.01502e-33
2.97299e-32
3.80883e-32
2.63856e-32
3.63866e-33
1.81575e-34
9.24786e-37
-3.82779e-35
-1.80283e-34
-4.10286e-31
-1.0959e-27
-1.37107e-29
-1.9888e-32
-4.52414e-35
-3.73894e-36
-4.79951e-36
-3.88638e-36
-1.8851e-36
-5.31409e-37
-9.31117e-38
-3.29255e-38
-6.47883e-41
3.23394e-38
1.93963e-36
4.80673e-35
5.59108e-35
3.26976e-35
3.50665e-36
3.81631e-38
-1.18324e-36
-6.75084e-36
-4.73786e-35
-7.82824e-31
-9.92028e-29
-2.01047e-30
-3.92945e-33
-8.76866e-36
-1.53141e-37
-1.68206e-37
-1.3408e-37
-6.41652e-38
-1.78653e-38
-3.17319e-39
-1.75895e-39
-2.6787e-39
-2.14841e-42
3.50815e-39
7.85612e-38
8.34216e-38
3.79672e-38
1.78005e-39
-2.54582e-38
-1.14046e-37
-1.10852e-36
-2.1616e-35
-8.68169e-31
-7.86558e-30
-2.37493e-31
-6.03349e-34
-1.41797e-36
-8.05116e-39
-5.39088e-39
-4.19747e-39
-1.96482e-39
-5.34198e-40
-9.49148e-41
-7.18577e-41
-1.83099e-40
-1.53453e-40
-1.30067e-44
1.35534e-40
1.14508e-40
3.36524e-41
-1.13169e-40
-2.15128e-39
-9.51663e-39
-1.3707e-37
-1.19417e-35
-5.45094e-31
-5.49354e-31
-2.27247e-32
-6.95706e-35
-1.73494e-37
-5.86879e-40
-1.60158e-40
-1.20519e-40
-5.47465e-41
-1.43884e-41
-2.54433e-42
-2.48964e-42
-7.45278e-42
-1.00797e-41
-3.2876e-42
1.58114e-43
1.35063e-43
1.37372e-44
-1.72556e-41
-1.02728e-40
-8.16555e-40
-1.07102e-38
-3.99274e-36
-1.74999e-31
-3.40186e-32
-1.79083e-33
-6.129e-36
-1.58966e-38
-4.45527e-41
-4.48349e-42
-3.20705e-42
-1.40356e-42
-3.53359e-43
-6.22987e-44
-7.65555e-44
-2.41432e-43
-3.72381e-43
-2.45513e-43
-3.10497e-44
0
-1.27795e-44
-9.37813e-43
-3.90978e-42
-5.66807e-41
-4.95471e-40
-5.53043e-37
-2.2147e-32
-1.88252e-33
-1.18966e-34
-4.27041e-37
-1.11598e-39
-2.85186e-42
-1.20246e-43
-7.9892e-44
-3.3469e-44
-8.00661e-45
-1.41995e-45
-2.14652e-45
-6.76466e-45
-1.07635e-44
-7.9734e-45
-2.34892e-45
-3.03235e-46
-9.35453e-46
-3.92977e-44
-1.33178e-43
-2.83455e-42
-1.3251e-41
-1.38591e-38
-4.69103e-34
0.999997
0.999991
0.999986
0.999981
0.999866
0.999831
0.999809
0.998918
0.0864922
0.0301119
0.0076058
0.000913597
0.00030676
0.000324625
0.000591058
0.00123449
0.00030681
0.000331428
0.000590819
0.0015638
0.000314104
0.000357239
0.000590481
0.00182509
0.000289733
0.000335795
0.000602124
0.00280062
0.000268245
0.00026813
0.000377375
0.000897711
0.00026842
0.000257978
0.000279185
0.00067514
0.000266339
0.000272343
0.000232156
0.000562429
0.0002658
0.000264228
0.00027391
0.00051219
0.0372682
0.0647757
0.000361268
0.000429815
0.0205431
0.085407
0.0884712
0.0180265
0.0655598
0.0353868
0.0895323
0.0894542
0.0906902
0.0342818
0.031488
0.0486838
0.0869962
0.0708958
0.031488
0.0659583
0.0861148
0.0261294
0.0916733
0.0941515
0.000488561
0.00251121
0.00336041
4.54274e-05
1.67347e-05
0.00013224
7.05981e-07
2.26804e-08
5.052e-05
1.35727e-05
1.84613e-05
9.26674e-08
3.81701e-05
1.11243e-05
8.38969e-10
3.75658e-10
2.51542e-09
6.55072e-10
3.92139e-10
3.54813e-10
3.51106e-08
9.11732e-11
1.42226e-10
2.67685e-10
5.40995e-11
7.95585e-11
9.07761e-11
8.31313e-11
1.73657e-11
1.26261e-11
9.60589e-12
7.2768e-12
3.80958e-13
2.77177e-13
1.92309e-13
1.30442e-13
8.23297e-16
7.66196e-16
5.59982e-16
4.00467e-16
2.98868e-18
2.86724e-18
2.1304e-18
1.43425e-18
8.32176e-21
7.73345e-21
5.46739e-21
3.18292e-21
1.2477e-23
1.15382e-23
7.69822e-24
3.87376e-24
9.86109e-27
9.05256e-27
5.35596e-27
2.12939e-27
5.3268e-30
4.30444e-30
1.58975e-30
-9.81464e-31
-5.54546e-32
-3.03624e-31
-2.57172e-30
-2.83589e-29
-1.25183e-30
-5.8579e-30
-4.25307e-29
-1.33583e-28
-1.07622e-29
-4.3127e-29
-3.38982e-28
0
-3.58453e-29
-1.41292e-28
-1.71875e-27
6.58448e-40
-6.46451e-29
-2.98128e-28
-5.99736e-27
5.10713e-21
-6.84411e-29
-5.03431e-28
-1.27547e-26
2.84059e-19
-4.24469e-29
-6.85288e-28
-1.54015e-26
1.54655e-19
-1.48833e-29
-5.85747e-28
-1.26064e-26
1.68766e-20
-2.70274e-30
-2.13669e-28
-4.00164e-27
2.97103e-19
-1.2335e-31
-1.32554e-29
-1.78055e-29
-4.39974e-27
0.999971
0.999805
0.988082
0.189582
0.000316202
0.000411252
0.125457
0.982138
0.0120959
0.0180114
0.451751
0.962142
0.968051
0.61955
0.357693
0.681497
0.00986183
0.0758296
0.950519
0.970033
0.491982
0.000205294
0.000208336
0.000221795
0.000953649
0.440461
0.860946
0.0105042
0.275478
0.948261
0.60248
0.000836573
0.00136253
0.0019085
0.681121
0.0408407
0.265128
0.0500491
0.0012032
0.00185904
0.0029449
0.000208811
0.000555675
0.846533
0.961714
0.953736
0.73937
0.911392
0.169524
0.000733462
0.000470185
0.00107492
0.00138784
0.672862
0.507708
0.0151209
0.0322738
0.00582865
0.561702
0.914098
0.95154
0.962983
0.963048
0.963048
0.742929
0.607412
0.12112
0.000273856
0.000367678
0.000370673
0.00354
0.00525397
0.0407637
0.140616
0.0177303
0.000135112
0.00663928
0.103566
0.00930108
0.174843
0.297539
0.241257
0.277011
0.41078
0.0847558
6.36781e-05
0.000108945
0.000617829
0.000387635
0.00929634
0.0264621
0.000487059
0.0365818
0.000210145
0.00292291
0.0323383
0.0564109
0.00928883
0.00968633
0.00856241
0.253136
0.181507
7.50004e-05
6.79229e-05
0.000941272
0.000904602
0.000530321
0.000121408
0.000285386
0.69232
0.000336903
0.000176484
0.000176484
0.00029355
0.0202915
0.009799
0.0184129
0.0833589
0.00136389
0.00113469
0.000136214
9.62349e-05
0.000951215
0.000951206
0.000281433
0.000197802
0.000426499
0.0702158
0.929028
0.000383442
0.000402991
0.00129194
0.00101328
0.0028945
0.0332267
0.208886
0.773337
0.526955
0.00223201
0.0550182
0.000136563
0.000160957
0.000218675
0.000487651
0.00202074
0.221828
0.982793
0.913029
0.116473
0.24584
0.699724
0.645695
0.00294747
0.121421
0.77058
0.773337
0.751431
0.729411
0.0548651
0.000740274
0.000802179
0.012733
0.375977
0.899074
0.984508
0.984508
0.911928
0.980021
0.976968
0.950652
0.994058
0.00315988
0.262299
0.764296
0.000186145
0.00164375
0.650917
0.783681
0.729836
0.823065
0.982757
0.983925
0.984267
0.984415
0.98282
0.976006
0.936571
0.203705
0.000777351
0.821071
0.00272352
0.358701
0.125589
8.3538e-05
5.50864e-05
4.08786e-05
9.63137e-05
0.183683
0.507185
0.855028
0.979596
0.940429
0.851345
0.61393
0.205368
0.00580795
0.00176514
0.000656375
0.181436
0.00175258
0.0046111
0.0774638
0.00188189
5.22998e-05
9.31316e-05
0.000137724
0.000124897
0.000127889
0.000160116
7.75142e-05
7.74952e-05
7.77779e-05
8.17354e-05
0.000160079
0.027238
0.027238
0.000510175
0.273651
0.00628457
0.0112622
0.096469
0.06472
5.0213e-05
0.000142562
0.000208432
0.000132741
0.000247324
0.000779358
7.76916e-05
7.74952e-05
7.75736e-05
8.06425e-05
0.000103974
0.000816795
0.00613291
2.95705e-05
0.0283047
0.0873778
0.0516452
0.103824
0.0195376
5.01977e-05
7.40247e-05
0.000139286
0.000139286
0.00379107
0.00471323
0.000234868
7.76841e-05
7.99857e-05
0.000621428
0.00058309
1.94994e-06
1.29188e-05
4.63472e-05
0.00222786
0.0471486
0.102377
0.0789591
6.02494e-05
6.02494e-05
0.00868515
0.000631285
0.00447147
0.00470982
0.00471323
0.00314909
0.00101965
0.000846892
0.000624532
6.37536e-08
2.08436e-06
5.77572e-06
0.000210286
0.00129179
0.0993379
0.084382
6.42425e-05
6.48934e-05
0.00531706
0.0127017
0.0124288
0.00313756
0.00469664
0.00184283
0.000624071
0.000332884
7.88893e-06
1.35328e-06
3.96007e-08
1.51866e-06
5.05822e-08
0.000279238
5.40934e-05
0.0229028
7.2615e-05
6.42345e-05
6.6902e-05
0.00704961
0.0125308
0.00265737
0.00441519
0.00187314
0.000922064
0.000154998
0.000402711
0.000224835
9.34318e-05
2.71888e-07
1.26779e-08
1.75175e-08
4.88408e-07
3.58509e-06
1.38682e-05
0.000795132
0.00113087
0.00109885
0.000309697
0.0012312
3.98623e-07
0.00743839
0.00933976
0.00959045
0.00426641
0.000244311
0.00109561
3.9206e-05
3.2804e-08
1.43512e-08
2.17166e-06
8.37437e-06
1.37099e-06
3.41817e-09
1.43298e-09
3.34138e-10
3.00019e-10
4.05257e-09
1.36651e-07
4.60422e-08
6.32342e-08
3.17805e-07
0.00410224
0.00953643
0.000372176
0.00151273
3.54677e-05
4.46912e-07
3.41187e-07
1.85476e-06
0.000105649
4.13553e-06
7.24572e-08
3.2789e-08
5.33693e-10
3.00056e-10
6.69568e-08
7.22205e-07
2.62151e-09
3.05903e-06
4.79181e-07
5.59079e-07
0.0079584
0.00654924
0.00156512
2.16419e-05
1.13451e-05
3.14441e-07
2.32699e-07
0.0140979
0.000182238
5.43569e-09
5.29752e-08
2.43458e-10
3.05115e-10
1.4312e-09
4.52245e-10
4.28069e-10
5.89387e-06
2.17258e-06
2.35248e-06
9.75242e-06
0.00929632
0.00183273
0.000400736
2.10737e-05
8.03954e-06
6.00606e-07
0.0141562
0.00142136
2.86794e-10
2.2537e-10
2.85555e-10
4.93138e-11
6.16177e-10
3.44186e-10
1.58748e-10
2.63383e-06
1.62489e-06
0.000409455
5.23596e-05
0.00194227
0.00677318
0.000326865
0.000185353
1.40197e-06
3.4698e-05
0.0140773
0.0018624
3.0559e-10
1.59512e-10
2.71006e-11
3.11466e-12
3.92209e-12
1.2054e-11
1.12897e-06
5.29956e-07
0.00033089
0.000781526
0.000770482
6.32525e-06
0.00738394
0.000913539
0.000109776
2.2742e-06
0.00765913
0.0010729
0.0206154
6.03907e-11
1.98413e-11
1.94992e-12
2.8887e-13
5.18024e-14
1.29662e-08
1.3062e-08
3.62585e-05
0.000780399
0.000530703
6.53232e-06
5.60315e-06
5.60315e-06
0.00328621
1.49295e-05
3.13755e-05
0.00806893
3.91113e-05
4.36861e-05
4.35297e-12
6.88238e-13
1.69919e-14
1.44159e-14
2.1031e-14
1.25362e-08
1.23379e-08
1.67596e-08
0.000390694
2.97394e-05
0.000162888
6.03848e-06
5.75962e-06
0.00224755
8.68367e-05
0.000270294
0.00771223
0.000126209
0.000844494
6.21698e-14
5.06271e-15
5.1798e-17
8.21438e-17
1.13866e-14
8.19633e-15
1.40284e-07
1.98803e-07
4.27905e-08
0.00026322
0.000183684
4.99895e-06
1.12332e-05
8.11689e-05
0.00173681
5.35559e-05
0.00481001
3.69631e-05
0.000688365
1.94141e-16
1.49643e-17
1.53646e-19
5.67369e-18
2.00374e-15
2.67758e-15
1.39314e-08
8.34531e-08
3.08896e-08
0.000268832
2.8538e-05
3.43484e-06
0.0019418
2.4292e-05
0.000424301
2.06312e-05
0.00502313
0.000396152
0.000257854
5.85348e-19
1.75786e-20
1.4522e-20
7.58669e-18
3.64593e-15
4.60957e-11
8.07656e-10
1.19525e-10
0.000106364
0.000268832
3.82955e-06
3.39389e-06
0.00200475
3.37512e-05
2.07754e-05
2.07131e-05
0.00629881
1.02969e-05
0.000105429
9.72606e-22
2.2787e-22
3.15047e-19
1.17633e-14
1.30436e-14
4.51868e-10
1.68538e-09
3.26537e-10
0.000255203
0.000131743
2.71683e-06
3.38021e-06
0.00166467
0.000433404
0.000297815
0.000798099
0.00428125
2.92527e-06
0.00234287
1.08696e-24
2.95502e-21
3.62734e-15
3.09688e-13
1.68095e-11
8.03757e-10
1.41649e-09
1.2355e-08
3.11895e-05
1.12927e-06
1.37719e-06
1.15375e-05
0.000342868
0.000599179
0.00074498
0.00125498
0.00800575
1.36754e-08
0.00296581
3.68343e-23
3.31841e-20
2.10145e-13
4.50972e-13
1.75455e-09
4.68277e-09
1.93846e-09
5.37668e-07
3.49299e-06
1.12869e-06
0.000102826
0.000111389
6.75009e-06
0.000400688
0.000238945
0.00619089
0.00290579
1.02692e-08
0.0032327
1.33484e-21
4.32612e-20
2.04796e-13
2.88657e-13
9.0306e-10
3.99202e-09
3.18438e-07
7.51473e-06
6.44247e-06
3.36254e-07
0.000106124
2.61641e-05
5.85682e-06
0.00146913
0.000538585
0.00201357
0.00190038
1.50538e-08
0.00788404
1.22314e-23
2.03629e-19
1.51902e-14
-1.87031e-13
5.4752e-09
3.63702e-08
7.43834e-06
5.55261e-06
1.83869e-08
9.09184e-05
3.72974e-07
0.000241541
0.000183746
0.00217537
3.54029e-05
0.00391925
0.00168987
2.06246e-08
0.00573545
2.19662e-22
1.37835e-18
-8.34911e-18
-5.16938e-11
2.03698e-05
4.98043e-05
3.15515e-08
1.46845e-08
1.46845e-08
9.24286e-05
4.042e-08
0.000247472
0.00217236
0.0021747
9.1468e-06
0.00443661
1.56103e-06
1.65754e-08
0.000570879
1.74822e-20
4.24393e-15
2.04137e-15
2.60237e-06
6.85115e-05
1.43638e-05
1.12852e-08
1.45291e-08
3.17479e-08
5.70728e-05
1.20102e-08
1.0123e-06
6.62214e-05
0.000123703
0.000840599
0.00184083
5.35307e-07
1.40274e-08
0.000208115
6.3781e-21
1.09656e-11
3.1768e-13
6.06132e-05
3.12901e-05
4.20513e-09
9.19086e-09
1.60176e-08
0.000101821
3.42867e-06
1.30932e-08
4.28317e-07
3.19044e-05
0.00543157
0.00572371
0.00301381
-1.40701e-10
1.60867e-08
0.000150945
3.83534e-20
9.93471e-10
6.1852e-10
5.93185e-10
5.03264e-10
5.07881e-10
1.72655e-08
1.53378e-05
0.00019821
9.428e-09
1.14103e-08
4.08465e-07
0.00277452
0.00525817
4.57097e-13
2.55145e-13
3.06876e-11
1.54948e-09
5.7637e-05
7.39712e-20
1.88976e-09
5.92396e-09
1.44467e-08
1.62721e-09
7.02143e-09
7.58845e-07
0.000305005
3.93847e-05
9.42795e-09
1.88746e-08
6.21409e-05
0.00374205
7.19062e-11
5.24273e-10
9.88513e-14
1.21095e-10
-5.99431e-12
0.000339764
3.98296e-12
1.63653e-10
1.4842e-09
7.70228e-09
3.57645e-10
6.28339e-05
0.000433811
0.000174813
3.10266e-08
1.53348e-08
3.69945e-05
0.00180224
7.00277e-08
3.50416e-11
7.12019e-09
9.79508e-17
6.79767e-13
-4.22537e-15
-9.90576e-14
1.29037e-11
5.47434e-12
5.19075e-15
1.1281e-15
5.38963e-10
0.000163326
0.000433773
1.31604e-06
4.03322e-05
0.000280963
0.00058958
1.03517e-09
-1.57389e-12
1.95612e-13
9.99343e-11
2.33236e-16
1.80774e-14
-7.58503e-34
-6.13895e-13
3.63116e-16
1.76506e-14
1.18741e-15
4.33675e-15
-2.44094e-11
1.88081e-05
0.000339418
0.000166076
0.000225297
-2.6487e-23
-1.30956e-21
-7.27722e-19
-6.44256e-19
-9.51711e-22
-1.26674e-26
-1.74087e-24
-6.6092e-20
-1.15831e-17
-6.37501e-14
-8.96615e-25
-4.42017e-24
6.40929e-30
-8.75416e-15
-1.66075e-12
1.63e-05
0.000338815
7.68809e-06
-1.67212e-25
-2.04092e-24
-1.22919e-24
-1.26656e-25
-2.18243e-26
-1.05142e-30
-4.21272e-31
-1.83438e-25
-3.14162e-21
-2.4327e-19
-2.1152e-20
1
1
1
1
1
1
1
1
1
1
1
1
1
1
0.999997
0.939286
0.958392
0.999974
0.996467
0.991478
0.999824
0.999792
0.999999
1
1
1
1
1
1
1
1
1
1
1
1
1
1
0.999999
0.960289
0.950631
1
0.998604
0.996519
0.877831
0.999999
0.999999
1
1
1
1
1
1
1
1
1
1
1
1
1
1
1
0.999999
0.999994
1
0.999998
0.92319
0.843368
0.999976
0.999999
1
1
1
1
1
1
1
1
1
1
1
1
1
1
1
1
1
1
1
0.951346
0.865334
0.998599
0.999999
1
1
1
1
1
1
1
1
1
1
1
1
1
1
1
1
1
1
1
1
1
1
0.999999
1
1
1
1
1
0.999988
1
1
1
1
1
1
1
1
1
1
1
1
1
1
1
1
0.999998
1
1
1
0.999995
0.984141
1
1
1
1
1
1
1
1
1
1
1
1
1
1
1
1
1
0.999998
1
1
0.953428
0.746115
0.99999
1
1
1
1
1
1
1
1
1
1
1
1
1
1
1
1
1
1
0.934119
0.889169
0.948872
0.927245
0.893453
0.990523
0.998054
0.998055
0.976
0.987959
0.953736
0.936976
0.977635
0.977636
0.97761
0.970538
0.956005
0.909759
0.910821
0.648937
0.0911899
0.176175
0.000824779
0.083062
0.997799
0.998054
0.998055
0.998051
0.997903
0.954809
0.97429
0.865666
0.773705
0.864286
0.940825
0.972623
0.9597
0.640172
0.577124
5.54521e-05
4.76342e-05
4.91934e-05
0.316651
0.997823
0.998054
0.998055
0.998055
0.998055
0.992889
0.108532
0.000849808
0.000853837
0.0010061
0.00192501
0.0115363
0.839942
0.994583
0.558744
0.000127467
4.93242e-05
0.000458147
0.984949
0.998019
0.998053
0.998038
0.998052
0.998059
0.691117
0.00137266
0.00131242
0.000854132
0.00169838
0.00271249
0.0095047
0.148952
0.994582
0.278366
0.00020057
0.000157392
0.743306
0.995171
0.997683
0.998046
0.998052
0.998053
0.997638
0.0020934
0.00139125
0.00154074
0.00100198
0.28333
0.849975
0.503094
0.0871946
0.99451
0.257484
0.000350212
0.669498
0.994315
0.992924
0.534797
0.84714
0.99804
0.998003
0.943709
0.00148033
0.00139125
0.00164302
0.618477
0.942128
0.917661
0.904602
0.666455
0.992957
0.0130646
0.480034
0.996231
0.995337
0.399082
0.00111235
0.366073
0.997916
0.996578
0.395527
0.00211084
0.15762
0.969925
0.968299
0.586298
0.0235198
0.0153831
0.470376
0.991505
0.473433
0.998159
0.997053
0.690456
0.000347984
0.000623268
0.444997
0.995622
0.213959
0.0148143
0.106048
0.969908
0.970324
0.883527
0.186494
0.228066
0.0116241
0.381153
0.989941
0.474128
0.286413
0.250702
0.215095
0.534886
0.902803
1
1
1
1
1
1
1
1
1
1
1
1
1
1
1
1
1
2.51249e-05
4.71423e-07
7.77109e-08
8.68499e-11
6.61696e-10
8.37017e-08
0.0122948
0.162207
0.552661
0.873514
0.998372
1
1
1
1
1
1
1
1
1
1
0.999999
0.999922
4.60554e-05
4.13243e-09
1.48457e-09
2.19193e-10
2.76674e-10
5.94185e-06
1.17085e-05
5.55204e-07
1.43857e-08
1.26479e-07
0.0406667
0.246602
0.534592
0.754813
0.885411
0.974893
0.999663
0.999999
1
1
0.999997
0.991426
0.253821
0.000144447
1.18793e-05
1.07896e-11
4.0029e-12
2.46909e-12
9.12133e-10
1.77846e-05
3.33739e-05
3.512e-08
3.07452e-06
1.54573e-07
1.54573e-07
1.8801e-07
1.95094e-07
9.1912e-08
1.26009e-06
0.0108287
0.0928969
0.443892
0.963063
0.998858
0.11775
0.0175473
7.37695e-05
8.87744e-06
1.08614e-06
1.53323e-15
7.9179e-15
4.80899e-12
5.49407e-10
1.05691e-08
1.66256e-07
3.45353e-07
3.07286e-07
9.09231e-06
1.10655e-05
9.69761e-06
6.48002e-08
6.55562e-08
1.35446e-07
1.74803e-06
4.11903e-05
0.0657974
0.366173
0.160326
0.129075
3.07783e-08
9.9632e-07
1.57527e-06
-6.15419e-27
-9.42434e-14
7.67043e-13
6.44481e-12
9.25162e-09
3.43038e-08
8.73569e-07
1.26395e-06
1.66613e-08
3.95627e-08
9.95158e-09
5.34019e-07
1.08554e-06
6.54049e-07
5.32341e-07
2.55547e-06
6.75931e-05
0.00157833
0.18963
0.000325028
1.93207e-10
1.86567e-10
1.9261e-10
5.83163e-11
-6.13166e-14
9.79721e-13
5.20529e-12
4.55651e-08
1.01212e-07
3.31786e-08
1.72019e-07
1.43018e-08
6.22276e-08
9.3176e-11
1.49224e-09
5.22623e-08
3.47041e-07
0.000187551
0.000437237
0.000264392
0.0051337
0.170674
0.000288019
3.90621e-12
8.00009e-12
3.91144e-12
2.2804e-12
-2.73818e-14
6.34362e-13
3.17252e-11
2.90638e-10
1.5211e-09
2.03457e-09
5.03656e-10
1.1431e-08
3.28025e-09
7.58325e-11
9.50942e-11
3.05616e-09
2.48059e-07
0.000248932
0.000409734
0.000365309
0.0280716
0.0492603
0.000268895
4.45379e-14
5.13539e-13
7.88587e-14
-7.51243e-31
-1.21656e-14
2.67788e-13
3.19103e-12
3.4505e-10
2.25752e-09
1.01398e-09
3.77592e-10
1.38418e-09
1.26667e-09
4.21227e-11
2.71003e-11
3.41156e-10
1.02183e-07
9.61456e-07
9.51e-06
0.00020366
0.0394897
0.0112193
0.000267577
1.76541e-16
4.37193e-15
0
-9.54041e-15
-7.93247e-15
2.09141e-14
5.49725e-12
2.15907e-10
2.25423e-10
1.20199e-11
1.54384e-11
3.42767e-12
5.17754e-12
2.3156e-11
1.37483e-10
2.41125e-10
1.69322e-09
1.34345e-07
1.08775e-05
0.000749959
0.0533056
0.00629133
0.000265638
1.05089e-19
1.5798e-19
-1.6234e-15
-6.52796e-15
-3.33009e-15
3.79251e-14
4.58126e-12
7.11146e-12
5.95341e-13
4.43874e-13
3.09476e-13
3.57937e-13
1.39031e-11
1.24206e-10
1.87947e-10
1.67559e-10
5.51188e-10
5.08281e-08
4.89776e-06
0.000265892
0.0550608
0.0105755
0.000265609
-5.66881e-18
-1.16184e-16
-1.16934e-15
-2.91793e-15
-6.77375e-16
6.23486e-14
2.75989e-13
5.0944e-14
8.13648e-14
1.17452e-13