/*--------------------------------*- C++ -*----------------------------------*\
| =========                 |                                                 |
| \\      /  F ield         | OpenFOAM: The Open Source CFD Toolbox           |
|  \\    /   O peration     | Version:  v1912                                 |
|   \\  /    A nd           | Website:  www.openfoam.com                      |
|    \\/     M anipulation  |                                                 |
\*---------------------------------------------------------------------------*/
FoamFile
{
    version     2.0;
    format      ascii;
    class       surfaceScalarField;
    location    "0.7";
    object      alphaPhi0.water;
}
// * * * * * * * * * * * * * * * * * * * * * * * * * * * * * * * * * * * * * //

dimensions      [0 3 -1 0 0 0 0];
oriented        oriented;


internalField   nonuniform List<scalar> 
17936
(
-9.00505e-07
2.51131e-06
-1.6108e-06
2.11995e-06
-2.87652e-06
7.56573e-07
3.19278e-06
-3.46395e-06
2.71175e-07
3.83498e-06
-4.09279e-06
2.57811e-07
3.92606e-06
-3.19524e-06
-7.30822e-07
2.12544e-06
-1.16132e-06
-9.64119e-07
5.75371e-07
-3.9966e-07
-1.75711e-07
5.97066e-07
-1.09654e-06
4.99473e-07
1.77149e-06
-2.50427e-06
7.3278e-07
3.21087e-06
-3.84907e-06
6.38203e-07
4.41193e-06
-4.90811e-06
4.96177e-07
5.35281e-06
-5.75696e-06
4.04154e-07
6.1333e-06
-6.50119e-06
3.67891e-07
6.89013e-06
-7.35231e-06
4.62186e-07
7.96222e-06
-8.71552e-06
7.53307e-07
9.3361e-06
-9.27825e-06
1.82924e-07
9.45187e-06
-1.1335e-05
1.7592e-06
1.40743e-05
-1.36683e-05
-4.0645e-07
1.03652e-05
-6.06307e-06
-4.2883e-06
3.28288e-06
-4.06916e-06
8.19881e-07
9.79976e-06
-1.69666e-05
7.09343e-06
1.92672e-05
-1.59956e-05
-3.26961e-06
9.77812e-06
-3.29991e-06
-6.47931e-06
-4.15646e-06
5.64384e-06
-1.48737e-06
2.5123e-06
-2.74812e-06
-1.08948e-06
1.3253e-06
2.90614e-06
-3.34952e-06
-5.52067e-07
9.95441e-07
4.08105e-06
-4.77058e-06
-6.10934e-07
1.30047e-06
4.91164e-06
-4.17034e-06
1.46417e-06
-2.20547e-06
2.80953e-06
-1.54978e-06
2.03809e-06
-3.29783e-06
7.74588e-07
-4.54265e-07
4.55976e-07
-7.76298e-07
4.66433e-07
-6.97698e-07
-7.52045e-07
9.8331e-07
1.06358e-06
-1.52965e-06
-1.29696e-06
1.76304e-06
2.06906e-06
-2.65517e-06
-1.29483e-06
1.88094e-06
3.24462e-06
-3.80228e-06
-1.08232e-06
1.63998e-06
4.30496e-06
-4.74272e-06
-8.6192e-07
1.29969e-06
5.11794e-06
-5.43785e-06
-7.48683e-07
1.06859e-06
5.7168e-06
-5.97125e-06
-9.60216e-07
1.21467e-06
6.24664e-06
-6.69486e-06
-1.78695e-06
2.23518e-06
7.66376e-06
-9.34206e-06
-2.06997e-06
3.90078e-06
1.09362e-05
-1.2463e-05
-3.3849e-06
4.77966e-06
1.36129e-05
-1.3628e-05
1.61327e-06
-1.59812e-06
1.3476e-05
-1.35186e-05
6.58631e-06
-6.54343e-06
1.48493e-05
-1.76544e-05
-4.62726e-06
7.42897e-06
1.93e-05
-1.64387e-05
-9.24194e-06
7.01963e-06
1.35391e-05
-1.1762e-05
7.24474e-06
-1.00669e-05
7.71241e-06
-3.82805e-06
1.21479e-05
-1.60323e-05
-6.94123e-06
8.04496e-06
-1.10373e-06
2.01193e-06
-2.31094e-06
-1.55085e-06
1.84986e-06
2.89019e-06
-4.11605e-06
-1.76836e-06
2.99421e-06
5.76976e-06
-7.28536e-06
-2.45036e-06
3.96596e-06
7.76121e-06
-6.80111e-06
3.04227e-06
-4.00237e-06
4.73333e-06
-2.71605e-06
4.9043e-06
-6.92158e-06
1.60356e-06
-1.22806e-06
1.13913e-06
-1.51463e-06
1.22294e-06
-1.44756e-06
-1.22133e-06
1.44595e-06
1.82009e-06
-2.27828e-06
-2.23794e-06
2.69613e-06
2.77721e-06
-3.28549e-06
-2.42404e-06
2.93232e-06
3.77537e-06
-4.22773e-06
-2.14536e-06
2.59773e-06
4.63244e-06
-4.98338e-06
-1.69597e-06
2.04691e-06
5.28154e-06
-5.53287e-06
-1.35395e-06
1.60528e-06
5.74032e-06
-5.9006e-06
-1.39545e-06
1.55573e-06
5.98336e-06
-5.93124e-06
-2.25458e-06
2.20245e-06
5.695e-06
-5.2994e-06
-4.45119e-06
4.05559e-06
4.84571e-06
-4.53638e-06
-5.92459e-06
5.61532e-06
4.71204e-06
-5.71075e-06
6.4701e-07
3.4857e-07
7.79009e-06
-1.04998e-05
4.72125e-06
-2.01155e-06
1.22542e-05
-1.19843e-05
-8.51479e-06
8.31896e-06
8.68248e-06
-6.58684e-06
-5.07425e-06
2.97532e-06
4.73319e-06
-3.44806e-06
1.14597e-05
-1.29247e-05
2.22269e-06
-1.50026e-06
1.81174e-05
-1.884e-05
-8.94456e-06
9.60664e-06
-6.62081e-07
1.60917e-06
-2.32281e-06
-2.34074e-06
3.05438e-06
3.49472e-06
-5.0051e-06
-4.55362e-06
6.064e-06
6.43801e-06
-7.27684e-06
-5.41043e-06
6.24927e-06
7.16742e-06
-6.19029e-06
5.01428e-06
-5.99141e-06
4.80144e-06
-3.26057e-06
9.04882e-06
-1.05897e-05
2.15361e-06
-1.91838e-06
1.85489e-06
-2.09013e-06
2.05568e-06
-2.31148e-06
-1.67004e-06
1.92585e-06
2.64273e-06
-3.027e-06
-3.11821e-06
3.50248e-06
3.43531e-06
-3.84385e-06
-3.39267e-06
3.80122e-06
4.23062e-06
-4.58277e-06
-3.0009e-06
3.35304e-06
4.89364e-06
-5.15953e-06
-2.35465e-06
2.62054e-06
5.38099e-06
-5.55999e-06
-1.81983e-06
1.99884e-06
5.6965e-06
-5.78452e-06
-1.68164e-06
1.76966e-06
5.81145e-06
-5.75227e-06
-2.16376e-06
2.10458e-06
5.55147e-06
-5.08199e-06
-3.46406e-06
2.99458e-06
4.21616e-06
-3.13346e-06
-4.5394e-06
3.45669e-06
2.42951e-06
-2.49797e-06
-8.67776e-07
9.36239e-07
3.12257e-06
-3.99515e-06
-1.81685e-07
1.05426e-06
4.45507e-06
-3.24682e-06
-7.39179e-06
6.20907e-06
6.33072e-07
1.2567e-06
-1.08433e-06
-7.84573e-07
-1.84985e-06
1.79667e-06
1.64045e-05
-1.63543e-05
-9.02402e-07
1.83475e-07
1.86451e-05
-1.79258e-05
-9.96614e-06
9.92389e-06
4.22542e-08
9.72665e-07
-1.64186e-06
-3.858e-06
4.5272e-06
2.24879e-06
-2.52486e-06
-7.09138e-06
7.36745e-06
2.31593e-06
-1.56737e-06
-6.22776e-06
5.4792e-06
3.25953e-07
7.53809e-07
6.99269e-06
-8.07245e-06
-5.01868e-07
-8.42093e-07
1.08364e-05
-9.49239e-06
1.73314e-06
-2.1855e-06
2.08534e-06
-1.63298e-06
2.65333e-06
-3.05202e-06
-2.24419e-06
2.64288e-06
3.39964e-06
-3.73119e-06
-3.85609e-06
4.18763e-06
4.05792e-06
-4.37058e-06
-4.15851e-06
4.47117e-06
4.65957e-06
-4.91735e-06
-3.65591e-06
3.91369e-06
5.14115e-06
-5.33098e-06
-2.84612e-06
3.03594e-06
5.48522e-06
-5.60372e-06
-2.14563e-06
2.26413e-06
5.68269e-06
-5.7134e-06
-1.82599e-06
1.85671e-06
5.68159e-06
-5.56866e-06
-2.01335e-06
1.90042e-06
5.35046e-06
-4.99665e-06
-2.61238e-06
2.25857e-06
4.50367e-06
-3.95668e-06
-2.696e-06
2.14901e-06
3.54476e-06
-3.3972e-06
-8.02006e-07
6.54441e-07
3.34284e-06
-2.85679e-06
-8.76771e-07
3.90722e-07
1.4325e-06
6.0698e-07
-4.72918e-06
2.68967e-06
-2.61335e-06
3.78085e-06
2.61145e-06
-3.77895e-06
-3.62999e-06
2.5608e-06
1.55409e-05
-1.44717e-05
-1.28658e-06
4.3725e-07
1.69849e-05
-1.61355e-05
-9.29112e-06
8.04331e-06
1.24781e-06
-5.55892e-07
5.44371e-07
-4.89083e-06
4.90235e-06
-1.13868e-06
2.50172e-06
-6.84394e-06
5.48089e-06
-4.16597e-06
5.98895e-06
-4.08866e-06
2.26568e-06
-7.75928e-06
8.23244e-06
8.98108e-06
-9.45424e-06
-6.40937e-06
2.8033e-06
6.90298e-06
-3.29692e-06
6.2969e-07
-2.28359e-06
5.53509e-07
1.10039e-06
3.03119e-06
-3.53808e-06
-3.1153e-06
3.62218e-06
3.92006e-06
-4.2349e-06
-4.5067e-06
4.82154e-06
4.51427e-06
-4.76629e-06
-4.74813e-06
5.00015e-06
4.9897e-06
-5.18338e-06
-4.13448e-06
4.32815e-06
5.3485e-06
-5.4857e-06
-3.19467e-06
3.33187e-06
5.59325e-06
-5.669e-06
-2.35879e-06
2.43454e-06
5.70717e-06
-5.70027e-06
-1.86659e-06
1.85969e-06
5.63624e-06
-5.50222e-06
-1.77518e-06
1.64116e-06
5.28564e-06
-4.97678e-06
-1.92743e-06
1.61856e-06
4.58983e-06
-4.18057e-06
-1.68828e-06
1.27902e-06
3.83658e-06
-3.60012e-06
-4.76456e-07
2.40004e-07
3.39634e-06
-2.9955e-06
3.78854e-08
-4.3872e-07
2.13064e-06
-6.40285e-07
-6.35452e-07
-8.54906e-07
-9.50619e-07
1.84606e-06
4.6957e-06
-5.59114e-06
-1.81665e-06
1.21193e-06
1.34894e-05
-1.28847e-05
-5.41446e-07
2.38234e-07
1.55508e-05
-1.52476e-05
-6.28019e-06
4.25081e-06
2.02938e-06
-3.02854e-06
4.00044e-06
-4.53791e-06
3.56602e-06
-5.3583e-06
7.48969e-06
-3.70203e-06
1.57064e-06
-1.0191e-05
1.25821e-05
1.66925e-07
-2.55805e-06
-1.22595e-05
8.8809e-06
8.63599e-06
-5.00406e-06
-5.05169e-06
1.63693e-06
-7.9224e-07
4.25268e-06
1.11646e-06
-2.73599e-06
-2.98955e-06
4.60907e-06
3.44413e-06
-3.83442e-06
-4.09306e-06
4.48334e-06
4.16102e-06
-4.46231e-06
-5.13555e-06
5.43684e-06
4.73573e-06
-4.97628e-06
-5.24158e-06
5.48213e-06
5.18129e-06
-5.35201e-06
-4.50616e-06
4.67689e-06
5.49513e-06
-5.61053e-06
-3.45506e-06
3.57047e-06
5.69915e-06
-5.75655e-06
-2.49768e-06
2.55508e-06
5.77721e-06
-5.75246e-06
-1.83967e-06
1.81492e-06
5.67113e-06
-5.52685e-06
-1.49984e-06
1.35556e-06
5.31643e-06
-5.04178e-06
-1.33007e-06
1.05542e-06
4.72094e-06
-4.38618e-06
-9.1243e-07
5.77673e-07
4.0749e-06
-3.79458e-06
3.06034e-08
-3.10923e-07
3.49416e-06
-3.06611e-06
8.68202e-07
-1.29626e-06
2.41231e-06
-1.52812e-06
1.92771e-06
-2.81191e-06
6.06615e-07
6.39634e-08
6.39974e-06
-7.07031e-06
-3.54264e-07
3.25742e-07
1.26326e-05
-1.26041e-05
-2.12573e-07
2.82464e-07
1.51572e-05
-1.52271e-05
-2.36618e-06
-1.72037e-07
2.47966e-06
-4.76993e-06
7.55905e-06
-1.83505e-06
-9.54063e-07
-9.84783e-06
1.13373e-05
1.38507e-06
-2.82746e-06
-9.43549e-06
3.72625e-06
1.94159e-06
1.99683e-06
7.74517e-07
-2.20896e-06
1.59504e-07
8.86393e-07
2.2122e-06
-2.11587e-06
-5.45628e-06
5.35995e-06
2.04122e-06
-2.59461e-06
-5.68911e-06
6.24249e-06
3.3316e-06
-3.88958e-06
-4.85638e-06
5.41436e-06
4.29052e-06
-4.61494e-06
-5.71621e-06
6.04062e-06
4.89931e-06
-5.14619e-06
-5.72398e-06
5.97086e-06
5.35215e-06
-5.51654e-06
-4.84594e-06
5.01033e-06
5.64455e-06
-5.73958e-06
-3.67772e-06
3.77275e-06
5.80148e-06
-5.83279e-06
-2.60415e-06
2.63546e-06
5.83398e-06
-5.79473e-06
-1.789e-06
1.74974e-06
5.70816e-06
-5.57202e-06
-1.21658e-06
1.08044e-06
5.38551e-06
-5.14886e-06
-7.97435e-07
5.60784e-07
4.87313e-06
-4.58666e-06
-2.65895e-07
-2.05816e-08
4.30924e-06
-4.04156e-06
5.89597e-07
-8.57276e-07
3.75695e-06
-3.40438e-06
1.6924e-06
-2.04497e-06
2.93228e-06
-2.33114e-06
3.54912e-06
-4.15026e-06
1.67975e-06
-1.10517e-06
7.67769e-06
-8.25226e-06
6.51321e-07
-3.05592e-07
1.27774e-05
-1.31232e-05
2.0378e-08
1.96841e-07
1.53981e-05
-1.56154e-05
3.41604e-07
5.55684e-06
-5.89823e-06
7.80268e-06
-1.60365e-05
8.23299e-06
1.93289e-05
-2.30888e-05
2.32623e-06
2.97107e-05
-3.81451e-05
8.51289e-06
3.97705e-05
-3.61536e-05
-3.06867e-06
3.19949e-05
-2.00476e-05
-1.37417e-05
3.30361e-06
6.71041e-06
-1.00157e-05
-1.03937e-05
1.02887e-05
1.04686e-07
-7.41241e-06
2.06873e-06
5.26859e-06
3.04727e-06
-7.33693e-06
4.27954e-06
5.79497e-06
5.44844e-06
-1.13596e-05
-7.54342e-06
-6.83052e-06
1.42367e-05
2.93373e-05
-5.02258e-05
1.9986e-05
6.28953e-05
-6.69791e-05
4.08516e-06
6.66109e-05
-6.44637e-05
-2.14577e-06
6.15994e-05
-5.79234e-05
-3.66644e-06
5.22944e-05
-4.58855e-05
-6.61087e-06
3.58998e-05
-1.99681e-05
-1.55606e-05
2.63862e-06
4.35964e-06
-6.14221e-06
-1.17424e-05
1.56206e-05
-3.82033e-06
4.55683e-06
-5.51296e-06
-6.15359e-06
2.86673e-07
8.65783e-06
-9.24952e-06
-2.69985e-06
-5.62224e-08
4.96524e-06
-1.73271e-07
-1.92349e-06
-1.87624e-09
6.04394e-08
-1.25644e-06
1.29385e-06
-8.43323e-08
2.75319e-06
9.69771e-06
2.31135e-05
-3.33253e-05
-1.79342e-05
2.14062e-05
1.72128e-05
-2.06852e-05
-2.27529e-05
2.26656e-05
-4.16953e-07
5.0428e-07
-2.21474e-05
2.14463e-05
-7.51406e-06
8.21515e-06
-1.82462e-05
1.06138e-05
-1.04795e-05
1.81298e-05
-2.28051e-06
-1.67226e-05
7.56154e-06
1.14531e-05
4.60525e-05
-6.85931e-05
-4.11777e-05
6.36397e-05
7.73626e-05
-7.27079e-05
-2.96927e-05
2.49945e-05
6.35083e-05
-5.98436e-05
-2.3155e-06
1.5184e-08
6.00984e-05
-6.25337e-05
4.3966e-06
-2.44564e-06
6.53137e-05
-6.74551e-05
6.5153e-06
-4.92807e-06
6.7686e-05
-6.44714e-05
1.20892e-05
-1.52224e-05
5.77348e-05
-4.59442e-05
2.98965e-05
-4.15546e-05
2.62695e-05
-4.53245e-06
2.02486e-05
-3.98834e-05
-1.72351e-05
1.49316e-05
2.30414e-06
-9.13189e-07
2.48182e-08
-6.98641e-07
1.2322e-06
2.12804e-09
-4.75155e-10
-1.91973e-09
1.21791e-10
-1.03036e-10
8.0989e-10
9.4284e-10
-1.77946e-09
-2.02188e-08
1.07137e-06
4.35541e-08
-1.09276e-06
-2.20208e-05
2.74398e-05
5.05394e-05
-5.41738e-05
-2.6471e-05
2.55186e-05
2.10885e-05
-2.0136e-05
-2.40682e-05
2.28661e-05
-7.59823e-07
1.96193e-06
-2.38795e-05
2.6576e-05
-7.33252e-06
4.63596e-06
-2.33552e-05
1.13116e-05
-2.72037e-05
3.92472e-05
1.11883e-05
-4.43796e-05
-4.06291e-05
7.358e-05
6.36254e-05
-2.39621e-05
-6.90987e-05
3.19214e-05
1.96571e-06
-1.72068e-07
-2.03633e-06
2.31889e-07
8.28785e-08
-1.20773e-07
2.88392e-08
6.44493e-09
1.45835e-07
-1.50126e-07
-1.63928e-08
1.19577e-08
2.15276e-07
-5.5165e-07
3.25837e-07
-2.33866e-08
1.50372e-06
-4.2887e-06
2.93998e-06
-3.26525e-07
1.25076e-05
-4.20702e-05
4.21554e-05
-1.24338e-05
4.66927e-05
-2.1368e-05
6.77669e-05
-9.30914e-05
-1.00546e-05
6.13479e-06
3.91986e-06
-1.28438e-06
-1.83329e-08
-1.62013e-06
1.2729e-06
-2.9753e-09
2.72994e-09
-7.68284e-10
4.58635e-10
-6.0818e-09
1.27765e-07
9.27154e-09
-1.31339e-07
-3.05799e-06
3.10844e-05
6.75888e-06
-2.4224e-05
-3.77076e-05
3.46527e-05
5.12654e-05
-4.82034e-05
-3.27305e-05
3.03105e-05
1.84389e-05
-1.60193e-05
-2.5892e-05
2.25202e-05
-4.2273e-06
7.59892e-06
-2.67336e-05
3.00506e-05
-5.45765e-07
-2.7713e-06
-2.10772e-05
2.97934e-06
-5.49352e-05
7.30332e-05
2.54173e-05
-4.74013e-05
-0.000103135
0.000125219
7.81228e-06
-5.98029e-07
-9.5558e-06
2.3556e-06
1.21621e-07
-1.01728e-07
-3.97409e-08
5.40138e-08
5.644e-08
-5.88067e-08
-1.01366e-08
3.35441e-08
7.70821e-08
-1.19302e-07
-2.99256e-08
5.59421e-08
2.43169e-07
-3.84416e-07
-2.20499e-08
8.40266e-08
1.65878e-07
-2.32261e-07
1.3695e-07
-3.4502e-07
6.51813e-07
-4.35271e-06
4.0584e-06
-1.14976e-06
3.07518e-05
-2.23436e-05
0.00011685
-0.000141255
-4.00745e-06
3.96532e-07
1.03389e-06
1.40352e-07
1.34703e-08
-3.18981e-07
1.55788e-07
-1.22827e-08
1.72806e-08
5.29489e-10
-1.3138e-08
-5.84932e-07
9.8466e-06
1.36057e-06
-9.79963e-06
-3.55868e-05
4.00409e-05
4.14866e-05
-4.58471e-05
-4.09349e-05
4.11976e-05
4.67615e-05
-4.69696e-05
-4.0997e-05
3.72586e-05
1.28536e-05
-9.11415e-06
-2.66902e-05
1.95296e-05
-1.23709e-05
1.95308e-05
-2.01588e-05
1.15971e-05
1.62479e-06
6.93652e-06
2.46198e-06
-2.14256e-05
-9.27003e-05
0.000111664
3.94995e-05
-1.06239e-05
-0.000124886
9.76466e-05
4.08991e-07
-6.8876e-08
-5.67266e-07
2.23117e-07
6.51726e-08
-6.94169e-08
-4.4511e-08
4.41179e-08
7.74716e-08
-5.42976e-08
-7.12405e-08
4.99514e-08
1.61862e-08
2.92726e-06
-6.05839e-08
-3.41749e-06
-2.82053e-05
5.13125e-05
1.51765e-05
-5.75808e-05
-5.55429e-05
4.63931e-05
1.29478e-05
-2.88554e-05
-1.78963e-05
4.70357e-06
5.59192e-07
3.97007e-06
3.51858e-07
-9.90581e-06
0.000141562
-0.000110125
-7.40297e-09
9.70561e-08
-3.07452e-07
1.47375e-08
-2.69196e-09
-1.45036e-08
1.90651e-09
-5.27756e-09
5.07934e-06
2.82431e-07
-5.67287e-06
-2.83196e-05
3.61712e-05
3.39369e-05
-4.17371e-05
-3.91833e-05
4.15133e-05
4.81405e-05
-5.0399e-05
-4.24037e-05
3.63422e-05
4.80628e-05
-3.95773e-05
-1.77197e-05
1.68764e-05
4.16335e-06
1.5922e-07
-2.05578e-05
6.16549e-06
-3.05845e-05
4.49818e-05
1.02357e-05
-2.91997e-05
-2.01148e-05
3.90778e-05
4.24597e-05
-4.97146e-05
-0.000126794
0.000134005
3.15015e-05
-1.27852e-06
-5.66565e-05
1.84337e-05
8.34131e-08
-8.45876e-08
-1.52666e-07
1.47345e-07
9.19835e-08
-6.98924e-08
-4.29402e-08
1.53714e-08
-8.06281e-07
1.14696e-05
1.61084e-07
-1.60723e-05
-3.61817e-05
5.39857e-05
4.58801e-05
-6.3643e-05
-6.16022e-05
6.55737e-05
6.47186e-05
-6.79156e-05
-6.50141e-05
6.49088e-05
2.87671e-05
-2.48542e-05
-6.37564e-05
6.15773e-05
-1.20317e-05
1.05298e-05
-2.61108e-05
6.76291e-06
8.80893e-05
-8.22671e-05
-2.74066e-07
5.02627e-07
-5.92977e-08
-4.51147e-07
2.19498e-06
1.60082e-08
-1.76147e-06
-2.32028e-05
3.12877e-05
2.88309e-05
-3.67098e-05
-3.47797e-05
3.81601e-05
4.50618e-05
-4.83926e-05
-3.96382e-05
3.33807e-05
5.14584e-05
-4.51169e-05
-6.72213e-06
3.75343e-07
6.76022e-06
-3.66559e-07
-7.98686e-08
8.80392e-08
-7.56842e-08
6.66048e-08
1.15223e-05
-2.59248e-05
-6.11878e-05
7.55729e-05
4.89761e-05
-6.4083e-05
-5.86494e-05
7.37345e-05
6.34769e-05
-4.21562e-05
-0.000131392
0.000103156
4.68736e-06
-2.69868e-07
-7.44574e-06
2.99335e-06
2.57917e-07
-5.43947e-07
-1.62469e-07
4.30678e-07
-9.70906e-06
2.64861e-05
5.87939e-06
-3.96568e-05
-4.06505e-05
4.86589e-05
4.36376e-05
-5.15209e-05
-5.30182e-05
4.27978e-05
6.82193e-05
-5.80892e-05
-1.4445e-05
8.79006e-06
4.12317e-05
-3.11068e-05
-5.80537e-06
3.52775e-06
3.5504e-06
-2.25185e-06
-1.71473e-06
1.07768e-05
-7.35437e-06
2.9666e-06
-1.14619e-05
1.84033e-06
6.62603e-05
-5.58093e-05
-1.27506e-05
-4.68235e-07
1.48645e-05
-1.53233e-05
2.70535e-05
1.67426e-05
-2.83503e-05
-3.11467e-05
3.42048e-05
4.04374e-05
-4.34623e-05
-3.61638e-05
3.25869e-05
5.01735e-05
-4.65418e-05
-1.11279e-05
3.46805e-07
1.38838e-05
-8.02958e-07
7.41368e-10
-1.08441e-08
2.04524e-08
-1.1534e-08
9.88955e-09
-1.48218e-06
-7.07302e-07
1.78161e-06
3.23105e-05
-4.46461e-05
-8.81242e-05
0.000100143
5.58178e-05
-2.81545e-05
-7.59066e-05
3.1652e-05
1.17903e-05
-3.7401e-06
-2.23715e-05
9.05488e-06
1.48848e-06
-2.21896e-06
-2.08007e-06
2.43637e-06
-4.02996e-06
2.75759e-05
1.82078e-05
-4.41052e-05
-3.6102e-05
4.2666e-05
4.86645e-05
-5.50694e-05
-4.83843e-05
4.48205e-05
5.67032e-05
-5.29803e-05
-8.69096e-06
-3.9217e-06
1.03006e-05
-1.92245e-06
-1.45262e-06
1.4879e-05
7.15698e-05
-0.000119098
-1.9666e-06
1.44956e-06
2.26259e-06
-2.44121e-06
-6.07897e-07
-6.71943e-07
-2.0438e-06
2.69134e-06
3.85869e-07
-3.70541e-06
4.93387e-05
-4.61207e-05
8.85334e-08
-1.6358e-08
-3.41313e-07
8.67017e-06
-1.06661e-05
9.70101e-07
1.53101e-07
1.06862e-05
-9.67017e-06
1.88244e-07
-1.32938e-07
7.22892e-06
-6.75821e-06
-1.2684e-06
1.28858e-08
7.01273e-06
-9.07209e-06
1.77941e-07
-1.98186e-07
1.0432e-05
-8.46498e-06
-4.69145e-06
-5.95927e-07
5.76536e-06
-4.35805e-06
-6.37563e-06
3.19579e-06
3.74543e-06
-3.8153e-06
-6.2554e-06
6.32527e-06
4.55838e-06
-5.89356e-06
-6.67939e-06
8.01457e-06
7.53988e-06
-9.07261e-06
-6.34881e-06
7.88153e-06
1.03426e-05
-1.13362e-05
-5.21791e-06
6.21148e-06
1.21488e-05
-1.27708e-05
-3.85871e-06
4.48074e-06
1.31898e-05
-1.34238e-05
-2.62228e-06
2.85624e-06
1.3474e-05
-1.32881e-05
-1.66395e-06
1.47798e-06
1.28791e-05
-1.23288e-05
-9.19442e-07
3.69131e-07
1.17303e-05
-1.11173e-05
-3.38068e-07
-2.74956e-07
1.05149e-05
-9.98478e-06
2.74876e-07
-8.05031e-07
9.54166e-06
-9.14537e-06
1.09925e-06
-1.49554e-06
8.75437e-06
-8.33618e-06
2.34477e-06
-2.76296e-06
7.82574e-06
-7.14931e-06
4.6367e-06
-5.31313e-06
6.28603e-06
-5.24376e-06
8.79764e-06
-9.83992e-06
3.96903e-06
-2.33622e-06
1.3644e-05
-1.52768e-05
2.07932e-07
1.97437e-06
1.59432e-05
-1.81255e-05
7.50966e-10
-2.00712e-10
-7.14673e-10
1.01172e-08
-1.48058e-09
-9.34537e-09
7.69145e-10
3.42976e-10
-1.12603e-09
7.46209e-10
9.37223e-13
1.94407e-09
-1.71247e-12
-1.94467e-09
2.39017e-12
9.97696e-12
-1.23154e-10
1.13214e-10
-2.81887e-14
1.3055e-09
-1.23564e-08
1.10593e-08
-8.78317e-12
1.03267e-07
-3.67356e-07
2.64679e-07
-6.48334e-10
1.34996e-06
-3.06822e-06
-7.35475e-07
-3.8698e-08
5.3292e-06
-8.32858e-06
-4.56117e-06
-3.2018e-08
1.12359e-05
-1.23222e-05
-7.88066e-06
1.55643e-06
1.24309e-05
-1.21305e-05
-6.79155e-06
3.70252e-06
1.12426e-05
-1.07898e-05
-5.4479e-06
4.99515e-06
1.06998e-05
-1.08718e-05
-3.68051e-06
3.85257e-06
1.12125e-05
-1.16983e-05
-1.70787e-06
2.19369e-06
1.22846e-05
-1.27344e-05
-2.52056e-07
7.01927e-07
1.2905e-05
-1.28146e-05
8.6057e-07
-9.50886e-07
1.25354e-05
-1.22308e-05
1.51978e-06
-1.82439e-06
1.19365e-05
-1.16423e-05
1.92444e-06
-2.2187e-06
1.14032e-05
-1.14078e-05
2.92325e-06
-2.91867e-06
1.17186e-05
-1.20681e-05
5.44269e-06
-5.0932e-06
1.21301e-05
-1.16697e-05
1.0628e-05
-1.10884e-05
1.02602e-05
-7.2795e-06
1.76428e-05
-2.06235e-05
2.30841e-06
4.29782e-06
2.27939e-05
-2.93981e-05
-8.07571e-11
3.00621e-10
-4.89967e-10
6.30511e-11
-6.18314e-12
-4.62011e-10
4.07255e-10
5.37994e-13
-1.16242e-13
-4.47808e-13
1.05732e-13
7.51607e-14
-1.39544e-14
1.19385e-13
-6.50272e-14
3.62263e-15
-1.06568e-14
4.72544e-15
-6.02718e-16
9.41509e-14
-1.85275e-12
1.14828e-12
-1.80502e-14
6.33006e-10
-5.84051e-10
1.10771e-10
1.15591e-10
4.60611e-11
-5.88698e-11
8.51045e-12
8.7054e-13
7.23965e-11
-1.14273e-09
1.07014e-09
-2.41508e-14
8.73194e-09
-5.60106e-08
4.72979e-08
-2.07029e-11
1.83485e-07
-8.93841e-07
2.21504e-07
-7.59252e-10
3.27676e-06
-6.00946e-06
-3.21027e-07
-2.8323e-08
9.27398e-06
-1.19398e-05
-1.3744e-06
-4.69801e-07
1.31536e-05
-1.3045e-05
-1.40977e-06
-1.12413e-06
1.22339e-05
-1.09971e-05
-7.53683e-07
-1.22815e-06
9.64293e-06
-8.75995e-06
5.86406e-07
-1.62783e-06
8.41476e-06
-8.48004e-06
1.69322e-06
-1.572e-06
9.04422e-06
-9.78272e-06
1.8977e-06
-1.15924e-06
1.08441e-05
-1.24746e-05
2.2559e-06
-6.25417e-07
1.46265e-05
-1.67704e-05
4.19604e-06
-2.05206e-06
1.89972e-05
-2.13749e-05
1.09142e-05
-8.53662e-06
2.34023e-05
-2.31063e-05
2.32357e-05
-2.35216e-05
1.42973e-05
1.77852e-06
3.96027e-05
-1.82083e-05
-2.05865e-10
6.75361e-11
1.35165e-10
-1.24516e-10
6.62354e-10
-6.45358e-09
6.96594e-09
-8.60437e-12
4.6268e-14
-9.84522e-14
8.76195e-12
1.72604e-16
-1.88316e-17
1.27288e-16
-6.56016e-17
4.68727e-17
-7.16514e-17
1.08722e-16
-1.34325e-18
9.37142e-16
5.81356e-16
-6.76343e-15
4.09024e-16
-6.11826e-13
-4.01673e-11
-9.0644e-11
-9.61567e-13
1.18454e-09
-1.16587e-09
-3.30987e-10
5.08742e-10
7.11376e-10
-2.08288e-11
-1.56241e-13
1.99191e-11
3.669e-11
-1.48653e-10
5.21609e-12
2.82621e-11
1.47211e-10
-1.42628e-11
1.5274e-11
1.95143e-11
1.58619e-11
-2.13901e-11
5.49585e-12
-1.32797e-12
2.39286e-11
-2.75905e-11
7.00902e-12
-5.03357e-12
4.31396e-11
-1.00179e-10
6.7197e-11
-1.13632e-11
3.95435e-10
-1.95291e-09
1.55968e-09
-1.2654e-12
9.86108e-09
-4.97395e-08
4.00257e-08
-1.71018e-10
2.43297e-07
-1.03916e-06
8.02935e-07
-7.95332e-09
2.1153e-06
-3.52853e-06
1.33052e-06
-2.1754e-07
5.90122e-06
-1.10105e-05
1.03786e-07
-8.24772e-07
2.19968e-05
-3.52703e-05
-7.78804e-07
-3.33531e-06
4.25573e-05
-4.7104e-05
2.3987e-06
2.11253e-06
5.29546e-05
-2.08511e-05
2.16648e-05
-1.10735e-05
4.98533e-06
-1.72066e-06
7.98797e-06
-1.56047e-05
-3.21055e-11
2.16604e-11
9.68317e-12
-9.52631e-10
7.9338e-11
-3.96861e-09
-4.59171e-11
2.41648e-11
-3.21662e-12
-2.10531e-11
1.10457e-10
-2.57977e-13
2.46426e-15
-3.78958e-15
2.57646e-13
1.87001e-18
-1.74546e-18
-1.51959e-19
2.74002e-20
4.2425e-18
-8.63709e-17
-3.52825e-17
5.06765e-18
1.35218e-15
-9.83869e-14
9.21163e-14
-2.60983e-15
3.68658e-12
-7.3935e-12
3.44506e-12
-8.88213e-14
1.14319e-11
-8.34888e-12
-3.90564e-11
-2.91402e-13
3.58379e-12
-1.17596e-11
-2.2007e-12
3.41343e-13
1.05934e-11
-1.26007e-11
-2.64496e-11
4.13842e-12
3.16842e-11
-9.86012e-11
-4.20267e-11
7.30658e-12
4.41108e-10
-4.8534e-10
-3.62021e-12
5.31856e-11
5.21438e-10
-5.72342e-10
5.57998e-11
4.37952e-13
1.76501e-10
-4.29483e-12
1.14639e-12
-7.89711e-13
4.96002e-12
-5.99549e-12
1.19967e-12
-5.96455e-13
1.15512e-11
-5.71404e-11
5.71708e-11
-1.3454e-11
4.15118e-10
-2.88071e-09
2.44579e-09
-4.53282e-11
1.90973e-08
-1.01017e-07
8.23623e-08
-2.1005e-09
6.29781e-07
-3.24607e-06
2.69255e-06
-1.09566e-07
1.6297e-05
-2.30233e-05
-3.58561e-06
-2.44274e-07
1.81005e-05
-1.91942e-05
6.52716e-06
-5.41925e-06
1.63864e-05
-1.21101e-05
1.67003e-05
-1.63695e-05
-5.59111e-14
1.52634e-15
1.52118e-15
-5.13872e-12
5.66958e-12
-2.01847e-12
1.34636e-13
-3.64172e-11
2.60211e-11
-1.08297e-10
5.24601e-11
4.44981e-14
-7.12726e-15
-1.24187e-12
2.06796e-13
-6.91079e-20
9.12898e-19
1.47634e-19
-3.30371e-19
7.88345e-19
-3.33949e-18
-7.73375e-19
7.88803e-19
4.11829e-17
-1.8452e-16
-9.39716e-17
1.0043e-16
1.37432e-15
-3.1071e-14
9.70814e-15
7.00301e-15
6.85458e-13
-6.77241e-13
9.75227e-14
1.82606e-12
2.33215e-13
-4.76822e-12
-8.6552e-13
1.49318e-12
4.68887e-11
-4.79627e-11
-1.60792e-11
2.18484e-11
4.3863e-11
-8.86576e-12
-2.38334e-12
8.79764e-12
3.41548e-12
-2.85763e-12
-4.42549e-13
-1.09362e-13
2.43571e-12
-1.30077e-12
-6.39479e-13
-6.72343e-14
1.08664e-12
-1.92883e-12
-1.51543e-12
1.33123e-14
7.78967e-11
-8.3701e-11
1.17402e-13
6.71072e-12
9.45887e-11
-1.05692e-10
4.95209e-13
3.90483e-12
5.85269e-11
-1.03518e-10
3.05842e-13
3.89784e-12
2.45735e-10
-4.25593e-10
3.82944e-11
3.74192e-11
1.49191e-09
-7.91341e-09
4.74232e-09
-7.15781e-10
4.20748e-08
-1.33012e-07
7.25046e-08
-3.97388e-08
2.49491e-07
-1.71427e-05
6.45763e-06
-6.68436e-06
1.61529e-05
-1.84768e-06
1.50471e-05
-7.28775e-06
-5.08489e-16
2.67805e-16
-2.29847e-16
-8.92097e-15
7.73869e-15
-9.20247e-15
1.03231e-15
-5.46654e-14
1.32247e-13
-1.79514e-13
7.74137e-15
-1.74961e-15
-7.56977e-16
-1.10578e-13
1.37814e-14
-2.43925e-19
6.93612e-19
5.18929e-19
-9.81022e-19
1.13562e-18
-4.90299e-18
-1.1268e-18
1.71614e-18
3.98762e-17
-1.35109e-16
-1.15748e-16
1.36537e-16
4.45544e-16
-4.52562e-14
-2.67787e-14
2.55955e-14
3.28424e-12
-3.32158e-12
-2.35157e-12
2.58158e-12
2.305e-12
-9.00175e-13
-1.42605e-12
1.14695e-13
5.34807e-12
-7.48645e-12
-2.09123e-11
-1.8319e-13
1.29861e-12
-7.29906e-13
1.78732e-13
8.80978e-14
1.03436e-12
-2.83256e-12
-4.38492e-13
5.69374e-13
2.73766e-12
-1.39139e-13
-4.82699e-13
1.14362e-13
4.19948e-14
-4.5566e-14
-4.98445e-15
2.26135e-15
4.30304e-13
-1.37631e-12
-2.6216e-13
-2.84537e-14
-4.57055e-12
2.13704e-12
-9.16999e-12
5.11812e-12
7.7644e-11
-6.88462e-10
-1.91136e-10
4.5681e-10
4.60571e-08
-3.8987e-08
-1.47549e-10
1.32226e-09
2.76215e-08
2.34516e-09
6.29579e-10
-4.19533e-10
6.41377e-09
-1.83861e-08
5.0078e-08
-7.85649e-08
1.40294e-06
-1.00176e-05
7.06956e-06
-7.44373e-06
1.27978e-05
-1.37149e-07
7.34664e-07
9.3239e-07
-4.29566e-17
3.67769e-18
-1.77826e-18
3.37205e-18
-4.57531e-18
-2.65812e-16
4.0246e-17
7.45979e-17
-5.63151e-17
-1.24766e-15
3.21932e-16
5.96049e-17
-3.29606e-17
-5.08094e-16
4.43949e-17
-4.5862e-19
3.8182e-19
1.38813e-18
-1.52739e-18
1.0806e-18
-3.18851e-18
-1.85697e-18
1.69107e-18
2.34883e-17
-2.03042e-16
-1.26233e-16
1.14766e-16
3.46385e-15
-1.04218e-14
-1.70637e-14
2.79495e-15
3.28792e-14
-6.50483e-14
-6.17975e-14
1.13668e-14
9.41092e-14
-1.02206e-13
-3.80569e-14
6.89598e-14
3.80028e-14
-3.03668e-14
4.06396e-14
1.34364e-14
6.21233e-14
-3.76964e-13
-6.33887e-14
7.19893e-14
6.25709e-13
-4.49357e-13
-1.27182e-13
6.66753e-14
5.90554e-14
-6.50391e-15
-2.30303e-15
6.67095e-15
4.22827e-15
-5.14898e-15
-2.00162e-15
1.21323e-15
1.44236e-14
-8.91178e-14
-5.73782e-14
7.21451e-14
8.30163e-13
-8.22254e-12
-6.10529e-12
8.93973e-12
9.90813e-11
-1.94552e-09
-3.10571e-10
5.41602e-10
3.29664e-08
-3.23095e-08
-1.01786e-09
4.88105e-09
2.26202e-08
-3.61672e-08
-1.71262e-09
3.34206e-09
7.66011e-08
-2.08571e-07
1.17432e-07
-1.02991e-07
7.43237e-06
-1.44676e-05
6.80456e-06
-7.07775e-06
2.08083e-07
-5.71508e-08
-1.98686e-07
4.73971e-08
-2.6344e-19
2.17348e-19
-1.28278e-20
2.03264e-19
-2.125e-18
-5.51702e-18
9.21472e-19
3.75155e-18
-1.53299e-18
-5.57095e-17
5.41685e-18
7.07001e-19
-2.65778e-19
-3.94057e-18
3.72549e-19
-4.00293e-19
2.00377e-19
1.42642e-18
-1.20594e-18
6.46724e-19
-2.04479e-18
-1.46469e-18
8.63876e-19
1.04158e-17
-3.50968e-17
-5.92444e-17
2.33032e-17
2.48583e-16
-3.50715e-15
-1.43203e-15
1.54462e-15
2.85896e-14
-7.74787e-14
-3.78957e-14
4.5549e-14
9.35377e-14
-6.98503e-14
-8.1244e-14
6.0047e-14
1.49848e-14
-1.37947e-14
-1.33021e-14
4.89951e-15
4.40711e-14
-7.10668e-14
-5.48245e-14
1.36514e-14
7.56497e-14
-7.80489e-14
-4.82685e-14
6.82369e-15
3.98916e-14
-4.26092e-15
-1.50177e-14
6.65154e-15
1.56215e-15
-2.31249e-15
-8.55704e-16
6.70211e-16
3.95548e-15
-2.10357e-15
-1.92411e-14
4.9938e-15
-6.82663e-14
1.1716e-12
-1.95644e-12
1.91877e-13
2.30349e-11
-1.01119e-10
-1.84972e-10
2.8565e-12
3.6901e-10
-1.08349e-09
-6.97683e-11
2.24409e-10
3.8143e-09
-1.6772e-08
-6.14554e-09
1.23447e-08
7.25279e-08
-6.76734e-07
7.52631e-08
-8.12031e-08
4.94192e-06
-8.98414e-06
5.12146e-06
-2.88649e-06
5.08719e-08
-4.13662e-08
-2.58849e-08
1.74619e-08
2.49498e-19
-4.85842e-19
-1.10721e-22
2.79604e-21
-3.99386e-20
-1.24349e-19
1.15916e-20
4.37573e-20
-1.89993e-20
-4.20449e-19
4.23309e-20
-2.4091e-20
1.30277e-19
-2.19906e-19
-1.02292e-19
-2.48181e-19
1.47488e-19
9.57168e-19
-7.21032e-19
6.3185e-20
-9.91544e-20
-2.03071e-19
5.4599e-20
1.68783e-18
-3.18304e-17
-1.83067e-17
2.08447e-17
6.05261e-16
-5.15909e-15
-2.22964e-15
2.36829e-15
1.16813e-14
-1.15302e-14
-2.46467e-14
4.72596e-15
5.62611e-15
-9.34398e-16
-9.75013e-15
4.26672e-16
5.25157e-16
-8.38528e-16
-8.27924e-16
9.97643e-17
8.17192e-16
-4.07784e-16
-1.10127e-15
6.24135e-17
2.85108e-16
-3.46983e-16
-2.60688e-16
4.25159e-17
4.54379e-16
-9.07284e-16
-6.33065e-16
2.85413e-16
2.27375e-15
-5.83631e-15
-6.37836e-16
2.73493e-15
1.10598e-14
-1.37382e-14
-4.78339e-15
8.41289e-15
9.98091e-15
-2.7782e-14
-7.61353e-14
5.13887e-14
4.00854e-13
-5.90965e-12
-6.64784e-12
8.27391e-12
7.64899e-11
-7.18713e-10
-5.68991e-10
8.80074e-10
5.83546e-09
-3.95474e-08
-3.01164e-08
4.49545e-08
3.7458e-07
-8.21778e-06
2.85837e-07
-1.35164e-07
8.29579e-06
-6.94885e-06
1.44999e-06
-6.40949e-07
5.06862e-08
-4.64514e-08
-1.09486e-08
6.6684e-09
5.75481e-19
-5.80795e-19
1.08268e-23
1.99654e-23
-1.98531e-22
-6.73457e-22
6.02958e-22
-2.37077e-21
1.76422e-20
-2.46587e-20
-1.46364e-20
-5.15266e-20
1.00291e-19
2.09304e-19
-2.09515e-19
-1.22411e-19
6.7678e-20
5.17667e-19
-3.55766e-19
6.13367e-20
-1.23885e-19
-5.36312e-20
8.60746e-20
5.03127e-18
-7.65957e-17
-3.25116e-17
3.89648e-17
3.10131e-16
-3.27203e-16
-9.44139e-16
1.56852e-16
2.01496e-16
-7.27637e-17
-3.75448e-16
2.54368e-17
2.9083e-17
-2.31237e-17
-3.08018e-17
1.06801e-17
2.39697e-17
-2.05604e-17
-2.22126e-17
1.0258e-17
1.51976e-17
-1.70008e-17
-1.25608e-17
8.02838e-18
3.94082e-17
-2.93254e-16
-3.90954e-17
1.02383e-16
1.92055e-15
-5.67598e-15
-9.27504e-16
1.73746e-15
9.23332e-15
-1.07281e-14
-4.8462e-15
4.88517e-15
1.05457e-14
-9.72802e-15
-8.46142e-15
7.12878e-15
8.68724e-15
-3.63482e-14
-3.99372e-14
7.08498e-14
4.79255e-13
-6.97142e-12
-7.06206e-12
1.23988e-11
8.63345e-11
-4.09147e-10
-6.64694e-10
8.60434e-10
1.48218e-09
-5.59624e-09
-3.21928e-08
2.8259e-08
5.98925e-08
-2.77614e-06
-7.09382e-08
1.62724e-07
6.84224e-06
-7.10322e-06
-3.50438e-09
8.27891e-07
5.24249e-08
-5.69321e-08
-6.11004e-09
1.05718e-08
5.41799e-19
-4.82911e-19
1.64242e-23
-1.43317e-22
8.75218e-22
9.16823e-22
-1.45528e-21
-4.35102e-21
1.39e-20
2.6984e-20
-2.63907e-20
-3.06188e-20
4.84295e-20
1.70283e-19
-1.24774e-19
-5.04167e-20
1.46947e-20
2.34854e-19
-1.501e-19
1.15175e-19
-5.05236e-19
-1.72182e-19
2.1386e-19
5.66172e-18
-9.88333e-18
-2.39013e-17
6.23605e-18
8.38098e-18
-3.90025e-18
-1.8937e-17
2.06499e-18
2.34271e-18
-3.14167e-18
-3.6401e-18
1.36699e-18
5.34659e-18
-5.95788e-18
-6.55462e-18
3.61651e-18
5.21003e-18
-5.47296e-18
-5.45723e-18
3.15418e-18
8.11311e-18
-2.91188e-17
-7.89066e-18
8.25784e-18
2.01909e-16
-3.15413e-16
-2.3518e-16
1.79589e-16
7.222e-16
-1.16666e-14
-1.0162e-15
1.28099e-14
1.64231e-13
-1.72092e-12
-5.09433e-15