/*--------------------------------*- C++ -*----------------------------------*\
| =========                 |                                                 |
| \\      /  F ield         | OpenFOAM: The Open Source CFD Toolbox           |
|  \\    /   O peration     | Version:  v1912                                 |
|   \\  /    A nd           | Website:  www.openfoam.com                      |
|    \\/     M anipulation  |                                                 |
\*---------------------------------------------------------------------------*/
FoamFile
{
    version     2.0;
    format      ascii;
    class       volScalarField;
    location    "0.7";
    object      p;
}
// * * * * * * * * * * * * * * * * * * * * * * * * * * * * * * * * * * * * * //

dimensions      [1 -1 -2 0 0 0 0];


internalField   nonuniform List<scalar> 
9072
(
467.942
495.584
496.147
501.72
518.232
541.8
565.023
589.631
615.501
641.486
666.924
691.585
715.5
738.756
761.16
780.612
790.606
808.209
828.628
818.779
830.518
860.601
920.429
407.951
435.853
436.46
440.943
457.586
482.447
505.819
530.417
556.355
582.492
608.041
632.748
656.668
679.904
702.353
723.422
734.263
743.525
769.035
767.878
749.044
782.937
847.84
347.112
375.546
375.718
376.513
392.587
422.465
446.464
470.946
496.948
523.292
549.054
573.908
597.863
620.96
643.046
663.476
675.93
686.223
717.72
724.312
686.155
720.019
771.726
286.286
314.773
313.92
306.033
319.056
361.752
387.412
411.404
437.391
463.981
490.033
515.122
539.18
562.21
584.089
604.231
620.029
635.145
660.266
669.7
646.554
668.962
703.977
226.304
253.399
251.174
235.581
248.402
302.815
328.728
351.727
377.714
404.623
431.059
456.466
480.688
503.707
525.478
545.666
563.295
580.556
601.715
614.421
609.33
622.273
641.331
167.518
191.789
188.3
172.452
188.987
242.358
268.82
291.504
317.868
345.266
372.193
398.004
422.438
445.48
467.198
487.531
506.274
524.838
544.901
560.438
565.65
572.79
581.274
109.144
131.456
125.375
113.736
133.495
172.271
205.358
230.388
257.775
285.946
313.493
339.796
364.474
387.545
409.208
429.656
449.125
468.645
488.862
506.177
516.058
520.844
522.384
50.2815
72.7019
59.6239
53.6199
78.1435
105.347
140.12
168.593
197.445
226.714
255.016
281.911
306.845
329.917
351.464
371.923
391.829
412.14
433.229
452.565
465.364
468.802
464.043
393.571
326.604
272.935
290.35
267.44
554.409
877.726
866.803
957.986
1136.72
1316.27
1165.87
1044.84
795.079
724.651
753.782
901.994
1398.73
1740.33
349.986
244.647
236.525
234.762
235.372
386.316
776.866
781.962
867.438
1082.83
1308.72
1042.92
750.521
645.631
646.965
669.622
774.061
1187.18
1694.89
307.127
237.262
233.909
234.04
234.846
304.031
649.712
685.763
733.83
988.569
1325.34
720.437
628.587
629.26
629.553
632.269
647.489
733.211
1682.75
277.366
234.287
233.938
233.981
230.494
280.065
505.449
594.553
527.012
752.952
1072.08
629.614
626.771
628.889
629.034
630.98
648.396
656.475
1358.4
250.467
234.202
234.137
233.244
194.271
200.087
325.734
547.274
228.961
399.054
700.293
621.794
625.718
628.41
629.177
634.621
622.595
650.136
1005.44
236.406
234.679
234.222
202.901
137.409
82.4594
50.8929
577.081
97.4544
226.795
606.773
619.49
624.915
626.681
686.154
828.47
446.8
561.159
1334.04
234.751
234.179
208.587
149.546
76.0914
42.945
40.5975
543.333
251.352
353.855
581.819
616.058
613.216
597.934
882.645
961.377
338.01
404.699
1594.8
218.504
210.112
162.945
95.1202
43.6111
43.0599
41.2041
442.181
407.442
411.446
552.935
581.51
522.859
492.038
925.34
763.292
285.952
347.792
1465.77
6.31424
17.2634
13.0969
11.1427
15.012
29.6216
58.9467
88.5678
119.882
151.116
180.399
208.188
233.436
256.466
277.75
298.004
318.14
339.27
362.076
384.632
400.971
403.335
388.57
4.82899
4.83338
4.60454
4.62433
4.70457
4.68856
4.66743
6.62674
14.5137
34.1321
59.5016
88.4983
113.785
135.943
155.961
174.913
194.568
216.361
243.251
274.874
301.223
304.192
258.198
4.45886
4.51744
4.31263
4.38169
4.49982
4.53075
4.56318
4.60111
4.63979
4.6709
4.82736
8.4669
17.7663
28.913
41.8754
53.8564
69.0677
87.4387
118.733
164.049
211.999
229.485
125.624
4.23419
4.26826
4.13569
4.2162
4.33899
4.37985
4.40671
4.44064
4.47093
4.48935
4.52431
4.56516
4.60758
4.65032
4.82056
5.18616
5.2879
6.59364
11.7855
52.2369
116.19
171.741
58.4719
4.04319
4.10713
4.09843
4.13802
4.19459
4.21917
4.23936
4.2636
4.29221
4.32501
4.35754
4.40366
4.45393
4.55278
4.71497
4.91895
5.10511
5.30426
5.6707
4.44337
12.215
81.3406
27.8684
3.86074
3.96373
3.96598
3.99655
4.0259
4.04444
4.06208
4.08297
4.11055
4.14434
4.18405
4.23599
4.30959
4.41174
4.5562
4.72802
4.91615
5.09779
5.25935
5.32028
5.86808
8.56161
11.7113
3.6785
3.78564
3.79786
3.81918
3.83842
3.85548
3.8732
3.89387
3.92001
3.95336
3.9947
4.04802
4.11939
4.21497
4.34098
4.49499
4.66436
4.80128
4.98415
5.19619
5.6249
3.9943
6.85151
3.47624
3.58478
3.59882
3.6178
3.63628
3.65418
3.67294
3.69401
3.71899
3.74938
3.78653
3.8332
3.89369
3.97333
4.07745
4.2072
4.35476
4.49475
4.72059
4.99013
5.24795
2.53398
10.6841
3.26464
3.37575
3.38788
3.40498
3.42351
3.44251
3.46234
3.48368
3.50716
3.53335
3.56314
3.5984
3.64207
3.69896
3.77595
3.87936
4.01202
4.18415
4.44019
4.69687
4.71152
5.22945
8.98059
3.04319
3.15807
3.16842
3.18404
3.20243
3.22222
3.24289
3.26431
3.2862
3.30791
3.32905
3.3502
3.37282
3.40082
3.44207
3.50695
3.60635
3.76007
3.99076
4.09462
3.76212
5.48435
7.50797
2.81142
2.93082
2.94006
2.95486
2.97332
2.99389
3.01551
3.03746
3.05859
3.07671
3.08961
3.09592
3.09485
3.08807
3.08204
3.08652
3.1145
3.18848
3.31209
3.32098
3.12467
7.52924
7.99753
2.56855
2.69319
2.70197
2.71671
2.73573
2.75745
2.78067
2.80435
2.82645
2.84321
2.85032
2.84358
2.81868
2.77328
2.70917
2.63276
2.54541
2.49405
2.50509
2.49392
2.05567
5.29591
12.635
2.31385
2.44446
2.45334
2.46859
2.48867
2.51218
2.53807
2.56514
2.59061
2.60969
2.61594
2.6013
2.55623
2.47147
2.34747
2.16665
1.95994
1.86285
1.86142
1.84477
1.62097
0.790761
7.83619
2.04681
2.18405
2.19343
2.20948
2.23092
2.25672
2.28626
2.31833
2.35004
2.37635
2.38914
2.37608
2.31984
2.19804
2.00433
1.73143
1.5076
1.41355
1.39193
1.43838
1.49599
1.59929
2.38201
1.76743
1.91164
1.92175
1.93855
1.96121
1.98931
2.02278
2.06079
2.1012
2.13989
2.16827
2.17112
2.12165
1.9756
1.70568
1.33387
0.995697
0.784806
0.726348
1.01256
1.37103
1.53874
1.30895
1.47628
1.6273
1.63803
1.65515
1.67838
1.70798
1.7445
1.78785
1.8375
1.89149
1.94317
1.97899
1.96763
1.8428
1.52747
1.00567
0.247969
-0.145554
-0.475622
0.479543
1.2427
1.51236
1.18843
1.17465
1.33153
1.34235
1.3589
1.38146
1.41081
1.448
1.49374
1.54931
1.61553
1.69033
1.76963
1.83766
1.83924
1.51121
0.988103
-1.01767
-3.95757
-3.45135
-1.02849
0.633317
-1.47004
-2.90123
0.864057
1.02531
1.03531
1.05003
1.0701
1.09653
1.13051
1.17303
1.2262
1.29224
1.3722
1.47295
1.61785
1.88532
1.67013
-0.597978
-3.4651
-5.35032
-4.5365
-3.95704
-5.82126
-5.62556
-4.50817
0.545987
0.710069
0.718173
0.729645
0.745105
0.765397
0.791279
0.82311
0.861923
0.907374
0.953989
0.990256
0.984134
0.825733
-0.291116
-6.40974
-6.47829
-5.49711
-4.77
-4.9664
-6.46298
-6.51285
-6.72748
0.222273
0.387709
0.393024
0.399898
0.408688
0.419647
0.432603
0.44638
0.45916
0.465108
0.447232
0.366987
0.117461
-0.472665
-1.94974
-4.72108
-6.5025
-6.80632
-6.14173
-6.36672
-7.06338
-7.13345
-7.57318
-0.104532
0.0607104
0.0626412
0.0639014
0.0644112
0.0635644
0.0599184
0.0501958
0.0289493
-0.0155036
-0.109473
-0.30426
-0.737016
-1.34218
-2.90873
-6.32675
-7.04756
-7.3677
-7.23788
-7.09958
-7.16272
-7.4965
-7.86652
-0.431561
-0.268017
-0.269753
-0.274634
-0.28322
-0.297102
-0.319064
-0.354581
-0.412976
-0.512002
-0.68947
-1.02706
-1.7396
-3.66346
-6.46578
-7.09022
-6.69159
-7.04306
-7.29339
-7.3118
-7.35668
-7.55861
-7.63361
-0.756118
-0.595602
-0.600975
-0.611961
-0.629518
-0.656155
-0.695813
-0.755672
-0.84817
-0.996054
-1.24512
-1.70048
-2.63916
-4.92568
-8.57691
-8.98157
-7.06549
-6.88358
-7.09206
-7.26221
-7.31265
-7.3019
-7.11415
-1.07584
-0.919395
-0.928049
-0.94459
-0.970105
-1.00781
-1.0624
-1.14171
-1.25932
-1.43817
-1.71971
-2.18512
-2.99408
-4.47892
-6.60721
-7.58667
-7.08155
-6.79272
-6.80987
-6.8614
-6.81674
-6.71062
-6.56139
-1.38858
-1.23727
-1.24861
-1.2697
-1.30153
-1.34765
-1.413
-1.50508
-1.63617
-1.82573
-2.10389
-2.51811
-3.13553
-4.01471
-5.06711
-5.83374
-6.0653
-6.12245
-6.18784
-6.23873
-6.2467
-6.21824
-6.16337
-1.69357
-1.54781
-1.56098
-1.58534
-1.62156
-1.67306
-1.74461
-1.84273
-1.97718
-2.1624
-2.41802
-2.76829
-3.23735
-3.82811
-4.47384
-5.01528
-5.35185
-5.54938
-5.68621
-5.78134
-5.83722
-5.86077
-5.86016
-1.99021
-1.84951
-1.86405
-1.89034
-1.92908
-1.98316
-2.05675
-2.1553
-2.28593
-2.45824
-2.68395
-2.97462
-3.33652
-3.76057
-4.20817
-4.6136
-4.92832
-5.15603
-5.32252
-5.44417
-5.52974
-5.58658
-5.62125
-2.27808
-2.14207
-2.15737
-2.18438
-2.22393
-2.2783
-2.35075
-2.44556
-2.56784
-2.72347
-2.9188
-3.15879
-3.44351
-3.76345
-4.09622
-4.40992
-4.67871
-4.8955
-5.06635
-5.19939
-5.30137
-5.37796
-5.43411
-2.55728
-2.42553
-2.44098
-2.46773
-2.50667
-2.55956
-2.62873
-2.71724
-2.82864
-2.96652
-3.13396
-3.33254
-3.5604
-3.81014
-4.06816
-4.31717
-4.54215
-4.7357
-4.89732
-5.02991
-5.13724
-5.22309
-5.29099
-2.82817
-2.70027
-2.71538
-2.74111
-2.77833
-2.82838
-2.89288
-2.97381
-3.07345
-3.19394
-3.33667
-3.50165
-3.68661
-3.88611
-4.09164
-4.29289
-4.4806
-4.64881
-4.79529
-4.92039
-5.02578
-5.1138
-5.18665
-3.09125
-2.96683
-2.98129
-3.00545
-3.04019
-3.08645
-3.14537
-3.21818
-3.30618
-3.41052
-3.53168
-3.66912
-3.82073
-3.98256
-4.14903
-4.31365
-4.47037
-4.61476
-4.74441
-4.85862
-4.95792
-5.04334
-5.11626
-3.3472
-3.22597
-3.2395
-3.26176
-3.29353
-3.33546
-3.3883
-3.45282
-3.5297
-3.61942
-3.72197
-3.83662
-3.96162
-4.0941
-4.23029
-4.36591
-4.49688
-4.61994
-4.73297
-4.83492
-4.92565
-5.0055
-5.07511
-3.59686
-3.4786
-3.49085
-3.51097
-3.53952
-3.57689
-3.62353
-3.67989
-3.7463
-3.82287
-3.90935
-4.00497
-4.1083
-4.21727
-4.32925
-4.44132
-4.55066
-4.65488
-4.75222
-4.84158
-4.92252
-4.99496
-5.05916
-3.84103
-3.72556
-3.73618
-3.754
-3.7792
-3.81197
-3.85253
-3.90109
-3.95778
-4.02254
-4.09501
-4.17449
-4.25983
-4.3495
-4.44163
-4.53417
-4.62511
-4.71271
-4.79554
-4.87262
-4.94338
-5.00758
-5.06518
-4.08033
-3.96734
-3.97619
-3.99168
-4.01352
-4.04175
-4.07645
-4.1177
-4.16548
-4.21964
-4.27982
-4.34541
-4.41552
-4.48898
-4.56446
-4.64048
-4.71559
-4.78851
-4.85811
-4.92358
-4.98434
-5.04004
-5.0905
-4.31521
-4.20401
-4.21142
-4.22468
-4.24325
-4.2671
-4.29625
-4.33069
-4.37033
-4.41498
-4.46432
-4.51784
-4.57484
-4.63446
-4.69571
-4.75754
-4.81889
-4.8788
-4.93644
-4.99111
-5.04231
-5.08966
-5.13286
-4.54612
-4.43581
-4.44244
-4.45368
-4.46917
-4.48888
-4.5128
-4.54092
-4.57312
-4.60923
-4.64895
-4.69187
-4.73746
-4.78508
-4.834
-4.88347
-4.93274
-4.98108
-5.02788
-5.0726
-5.11482
-5.15418
-5.19035
-4.77381
-4.66361
-4.66992
-4.67936
-4.69196
-4.70778
-4.72684
-4.74912
-4.77452
-4.80291
-4.83404
-4.86758
-4.90312
-4.9402
-4.97831
-5.01691
-5.05544
-5.09342
-5.13038
-5.16597
-5.19986
-5.23176
-5.2613
-4.99942
-4.88888
-4.89476
-4.90246
-4.91232
-4.9245
-4.93904
-4.95594
-4.97515
-4.99654
-5.01993
-5.04507
-5.07168
-5.09941
-5.12792
-5.15682
-5.18575
-5.21436
-5.24237
-5.26954
-5.29569
-5.32062
-5.34401
-5.22412
-5.11297
-5.11794
-5.12378
-5.13098
-5.13971
-5.15004
-5.16198
-5.1755
-5.19051
-5.20689
-5.22446
-5.24304
-5.2624
-5.28229
-5.30248
-5.32273
-5.34282
-5.36259
-5.38191
-5.40076
-5.41912
-5.43685
-5.44858
-5.33672
-5.34026
-5.34407
-5.34863
-5.35406
-5.36043
-5.36777
-5.37604
-5.38521
-5.39519
-5.40588
-5.41718
-5.42895
-5.44105
-5.45333
-5.46566
-5.47793
-5.49003
-5.50197
-5.51382
-5.52582
-5.5382
-5.67392
-5.56057
-5.56232
-5.56395
-5.56587
-5.56813
-5.57078
-5.5738
-5.57721
-5.58098
-5.58508
-5.58947
-5.5941
-5.59893
-5.6039
-5.60893
-5.61399
-5.61903
-5.62401
-5.62896
-5.63399
-5.63947
-5.64643
369.121
337.345
306.792
270.455
189.573
153.916
127.166
113.048
33.5988
33.6998
34.9325
34.9235
28.2509
28.9812
29.3958
29.802
20.6896
21.8829
22.2956
22.3998
13.8031
15.2288
16.3689
17.51
11.5623
11.9372
12.1259
12.3564
10.1207
10.0042
9.85861
9.49175
8.62256
8.38129
8.08161
7.5848
7.14812
6.85222
6.31285
5.49673
7.79073
7.30295
5.22505
3.15468
9.37384
6.28098
2.8569
2.14725
4.31683
0.448309
-1.17846
1.84384
0.59384
1.02065
1.10754
0.671018
1.19712
3.05124
2.94391
1.70065
1.83795
2.56253
3.51223
3.3179
-4.10224
-3.08869
-1.2243
-3.86667
-4.92597
-4.95062
-4.81283
-6.00143
-6.23256
-5.96547
-5.80633
-5.74956
-7.14734
-6.80082
-6.47034
-6.23337
-7.504
-7.15917
-6.82492
-6.55403
-7.27684
-6.99581
-6.75272
-6.55038
-6.81699
-6.64833
-6.50984
-6.39128
-6.41185
-6.33251
-6.25917
-6.19322
-6.09952
-6.06282
-6.02678
-5.99254
-5.84518
-5.83385
-5.82135
-5.80808
-5.63711
-5.64183
-5.64473
-5.64591
-5.46908
-5.48402
-5.49707
-5.50809
-5.33739
-5.35874
-5.37816
-5.39538
-5.2389
-5.26376
-5.28666
-5.30736
-5.17013
-5.19623
-5.22051
-5.24277
-5.12759
-5.15336
-5.17753
-5.19995
-5.1083
-5.13269
-5.15571
-5.17722
-5.10979
-5.1321
-5.15322
-5.17306
-5.12989
-5.14966
-5.16842
-5.18608
-5.16672
-5.18373
-5.19985
-5.21502
-5.21876
-5.233
-5.24642
-5.25894
-5.28456
-5.29617
-5.30701
-5.31701
-5.36261
-5.3719
-5.38052
-5.38835
-5.45134
-5.45869
-5.46553
-5.47173
-5.54907
-5.55482
-5.56032
-5.56541
-5.65386
-5.65824
-5.66272
-5.66714
204.09
158.473
97.6404
48.1061
43.1515
42.8864
39.836
377.89
411.844
414.511
490.607
427.934
223.563
275.712
460.301
494.094
270.244
313.684
820.473
96.0762
59.1434
41.3169
42.2393
42.9058
43.2527
77.7475
330.96
387.121
360.123
343.459
282.943
212.319
217.577
223.207
268.279
287.583
152.175
120.953
36.9876
42.1282
41.4241
42.0257
41.9826
30.7198
134.71
460.063
426.143
254.75
219.201
215.191
211.976
215.935
217.485
186.623
52.3876
172.317
190.161
31.5211
38.7905
51.4935
11.0977
73.4158
211.877
430.728
598.737
393.945
212.055
211.124
211.457
210.679
212.618
210.302
201.33
182.764
204.861
212.084
22.7396
54.6843
63.2783
95.0314
205.343
344.024
460.863
338.501
207.886
208.122
210.189
211.548
211.125
211.227
199.051
201.252
205.361
211.262
211.463
17.0736
40.3283
47.4272
91.3969
159.62
180.4
207.724
204.74
206.071
208.242
211.144
212.335
211.571
211.201
210.651
211.457
211.45
211.561
211.285
10.7607
0.213252
-36.8845
19.8695
182.947
193.914
199.63
205.627
207.61
209.874
211.74
212.311
211.837
210.757
213.159
212.584
213.036
212.074
211.275
7.96884
-6.40462
-112.246
-7.20907
181.816
196.391
199.414
207.885
209.071
210.693
211.752
212.056
204.17
191.218
188.207
204.199
203.519
191.211
182.107
6.1783
6.0929
-68.4584
-3.48255
60.7424
160.062
198.424
206.836
208.586
209.663
199.037
179.788
155.471
135.34
131.134
129.298
125.74
114.094
158.968
3.61166
-2.56126
-38.9145
0.703649
-4.27019
13.1037
102.615
166.031
172.378
162.588
137.646
108.646
79.9038
57.2705
60.2696
50.1887
7.62505
5.6117
37.0162
-1.60822
-10.808
-4.63797
-4.42682
-5.56847
-5.74268
-4.60758
0.585674
26.2871
64.1586
42.0749
17.9048
2.33276
9.19607
9.72582
15.5007
0.347472
0.799214
-0.0766151
-0.285661
-6.64866
-7.77521
-4.78551
-6.35675
-6.52052
-5.31028
-4.31046
-3.41849
-1.95877
-2.37256
-3.20918
-3.57407
-2.88709
-1.62426
2.79616
-0.311192
1.52948
-6.77231
1.32888
-6.07998
-7.32212
-6.81551
-6.93277
-6.73591
-5.55449
-4.58502
-4.13165
-1.89544
-1.34924
-2.78788
-3.85736
-3.35379
-2.89616
-3.09817
-3.19106
-2.77514
1.28422
0.237528
-2.31079
-7.50276
-6.80724
-6.55972
-6.19494
-5.78151
-5.08978
-4.35955
-2.27102
-1.50496
-2.77249
-3.46053
-3.43801
-3.27567
-3.29571
-3.21042
-3.71218
-2.1543
-2.96411
-7.89657
-5.80166
-6.80672
-6.3759
-6.31333
-6.27193
-6.0883
-4.70064
-3.42238
-2.34161
-3.21966
-3.81766
-3.79902
-3.59414
-3.4017
-3.19483
-3.44807
-3.35766
-0.129236
-5.09698
-7.03338
-7.21698
-7.32956
-6.91451
-6.84567
-6.14711
-4.64446
-3.42155
-3.20112
-3.75617
-4.24948
-4.01175
-3.85367
-3.62988
-3.4667
-3.53625
-3.80664
-5.51199
-6.64286
-6.90617
-7.41245
-8.60804
-8.66612
-6.94491
-5.63498
-4.41427
-3.72778
-3.29117
-3.64778
-4.02945
-4.0166
-4.0187
-3.85574
-3.70212
-3.67435
-3.7005
-6.00305
-6.26612
-6.60997
-7.09173
-8.15644
-7.62362
-6.75488
-5.92239
-5.07207
-4.37641
-3.73512
-3.94635
-4.11119
-4.09547
-4.09265
-4.02646
-3.89112
-3.77598
-3.73057
-5.82089
-6.06504
-6.34461
-6.63626
-7.03522
-7.02657
-6.41869
-5.90439
-5.58818
-5.26783
-4.73402
-4.4562
-4.36339
-4.16411
-4.15581
-4.17727
-4.07038
-3.88228
-3.75441
-6.06748
-6.11225
-6.26857
-6.42723
-6.54938
-6.4898
-6.16511
-5.81652
-5.62129
-5.45956
-5.23606
-5.04076
-4.37068
-4.19503
-4.22588
-4.31909
-4.27621
-4.035
-3.73408
-6.31689
-6.20067
-6.2252
-6.27111
-6.28298
-6.20644
-6.01951
-5.7757
-5.58636
-5.47325
-5.29496
-4.68533
-3.96283
-4.15904
-4.22875
-4.31813
-4.33709
-3.93105
-3.45005
-6.35806
-6.19885
-6.15483
-6.13843
-6.10651
-6.02919
-5.9008
-5.74075
-5.58003
-5.45743
-5.18749
-4.83062
-4.18991
-4.12635
-4.1705
-4.13044
-4.00241
-3.73241
-3.24945
-6.26501
-6.12697
-6.06194
-6.0189
-5.97076
-5.90015
-5.80422
-5.69526
-5.58131
-5.44451
-5.18072
-4.92837
-4.70147
-4.28895
-4.18368
-3.98298
-3.68026
-3.57669
-3.25983
-6.11599
-6.01594
-5.9544
-5.90673
-5.8575
-5.79652
-5.72169
-5.64622
-5.5385
-5.39853
-5.20963
-5.02951
-4.87771
-4.5961
-4.28209
-3.93446
-3.52354
-3.47755
-3.50403
-5.95028
-5.88816
-5.84233
-5.80244
-5.76043
-5.70996
-5.64768
-5.57001
-5.46439
-5.34607
-5.22842
-5.10921
-5.01394
-4.89012
-4.44179
-3.94888
-3.62805
-3.49829
-3.44403
-5.79037
-5.76031
-5.73392
-5.70723
-5.67647
-5.63796
-5.58915
-5.52685
-5.44769
-5.35438
-5.26657
-5.16723
-5.12731
-5.16687
-4.75798
-3.95342
-3.76381
-3.54416
-3.54255
-5.64584
-5.64127
-5.63348
-5.62124
-5.60316
-5.57777
-5.54377
-5.50014
-5.44746
-5.38558
-5.29421
-5.19474
-5.15539
-5.19186
-4.91756
-4.06571
-3.49481
-3.74559
-3.73806
-5.52044
-5.53503
-5.543
-5.54429
-5.53883
-5.52668
-5.50775
-5.48234
-5.45174
-5.41105
-5.31201
-5.16281
-5.0538
-4.98428
-4.74254
-3.86397
-3.25383
-4.12717
-3.96855
-5.41579
-5.44378
-5.46387
-5.47666
-5.48268
-5.48276
-5.47779
-5.46904
-5.45411
-5.43126
-5.34393
-5.17338
-5.0259
-4.93559
-4.73764
-4.38056
-4.00998
-4.32424
-4.19871
-5.33246
-5.36891
-5.3974
-5.41902
-5.43459
-5.44522
-5.4527
-5.45823
-5.46079
-5.4695
-5.43691
-5.30506
-5.14505
-5.15389
-5.21819
-4.82778
-4.61418
-4.65084
-4.7046
-5.27012
-5.31109
-5.34466
-5.37228
-5.39511
-5.41442
-5.43278
-5.4523
-5.48287
-5.55076
-5.62825
-5.61223
-5.4259
-5.28282
-5.61613
-6.37897
-5.00955
-4.87953
-4.95945
-5.22773
-5.27023
-5.30624
-5.33737
-5.36525
-5.39126
-5.41743
-5.44967
-5.51301
-5.65741
-5.88027
-6.02665
-5.8162
-5.43448
-5.8037
-7.30205
-5.08699
-4.97438
-5.03011
-5.20407
-5.24589
-5.28226
-5.31487
-5.34593
-5.37701
-5.40795
-5.44728
-5.52443
-5.71111
-6.05501
-6.39966
-6.15185
-5.60672
-5.31493
-5.53887
-5.09054
-5.01809
-5.11576
-5.19799
-5.23746
-5.27266
-5.30515
-5.33917
-5.37454
-5.40776
-5.43922
-5.48077
-5.60454
-5.99961
-6.61699
-6.62956
-5.48396
-4.62234
-4.94469
-5.04868
-5.04446
-5.09944
-5.20837
-5.24409
-5.27686
-5.30839
-5.34395
-5.3821
-5.41938
-5.44119
-5.42907
-5.45438
-5.7042
-6.17024
-6.10148
-4.6549
-3.95122
-4.86475
-5.07971
-5.11983
-5.18734
-5.23412
-5.26455
-5.29278
-5.32026
-5.35329
-5.39714
-5.45481
-5.49183
-5.46228
-5.47097
-5.61902
-5.926
-6.00736
-4.9027
-4.43966
-5.16307
-5.21188
-5.26624
-5.23821
-5.2745
-5.29835
-5.31957
-5.3402
-5.3678
-5.42183
-5.51951
-5.57879
-5.5548
-5.57368
-5.71012
-5.95974
-6.07249
-5.46922
-5.3876
-5.37439
-5.34794
-5.37234
-5.33816
-5.32914
-5.34639
-5.3596
-5.37088
-5.39035
-5.44753
-5.57444
-5.61844
-5.59863
-5.61517
-5.72473
-5.88842
-5.76421
-5.62963
-5.54117
-5.49302
-5.46928
-5.47346
-5.5626
-5.39759
-5.40923
-5.41457
-5.41436
-5.41667
-5.46371
-5.57504
-5.60823
-5.57972
-5.58698
-5.68978
-5.78242
-5.75051
-5.68827
-5.63763
-5.60233
-5.58364
-5.58161
-5.6072
-5.47888
-5.48661
-5.48593
-5.47457
-5.45483
-5.46604
-5.54161
-5.61216
-5.56399
-5.5812
-5.68725
-5.76645
-5.77365
-5.75108
-5.72328
-5.70108
-5.68814
-5.68228
-5.68191
-5.57137
-5.57755
-5.57481
-5.55788
-5.52347
-5.48494
-5.58646
-5.75854
-5.69428
-5.7104
-5.77517
-5.81471
-5.82575
-5.819
-5.80592
-5.79402
-5.78587
-5.78263
-5.78245
-5.67272
-5.67986
-5.67992
-5.66655
-5.62986
-5.55436
-5.95896
-6.11953
-5.99759
-5.89801
-5.88576
-5.89087
-5.89505
-5.89401
-5.88925
-5.88452
-5.88173
-5.88199
-5.88339
496.317
495.447
497.958
508.355
529.986
553.363
577.101
602.486
628.532
654.298
679.352
703.631
727.203
750.122
771.76
786.188
796.717
822.526
822.27
826.871
835.727
899.2
916.996
436.648
435.835
437.814
447.303
470.129
494.143
517.893
543.291
569.461
595.368
620.499
644.8
668.363
691.28
713.057
731.678
735.259
758.859
769.299
761.724
753.304
823.06
851.921
376.034
375.568
375.707
381.526
407.952
434.785
458.481
483.824
510.15
536.279
561.596
585.994
609.517
632.166
653.526
671.713
678.254
701.785
727.835
704.346
692.395
749.95
780.899
315.04
314.791
310.81
306.671
341.363
376.065
399.146
424.22
450.701
477.114
502.705
527.28
550.824
573.319
594.44
612.979
626.368
647.242
670.164
658.144
650.684
689.566
711.13
253.845
253.354
244.768
233.765
277.287
318.203
339.753
364.478
391.164
417.949
443.905
468.728
492.346
514.762
535.808
554.865
571.48
590.886
610.662
612.305
612.837
633.65
645.637
193.407
191.161
181.173
172.802
217.252
258.288
279.486
304.422
331.558
358.842
385.261
410.399
434.127
456.505
477.549
497.095
515.363
534.834
553.906
563.951
568.514
578.063
583.481
135.633
128.816
118.463
119.066
151.144
192.029
217.552
243.867
271.877
299.844
326.832
352.346
376.198
398.541
419.573
439.481
458.773
478.779
498.258
512.084
518.87
522.573
522.52
79.0837
68.0371
46.8752
68.8851
89.0653
124.621
154.494
182.86
212.158
241.006
268.686
294.631
318.593
340.858
361.798
381.898
401.865
422.665
443.402
460.048
468.312
467.75
462.559
382.323
291.194
280.845
282.043
317.128
828.89
864.464
900.821
1031.64
1257.96
1201.75
1157.08
899.851
740.088
732.299
797.599
1111.13
1630.51
1821.54
309.343
236.198
236.616
234.564
242.859
714.814
770.846
815.738
945.779
1281.53
1170.31
914.296
664.92
643.791
653.356
704.926
916.303
1497.84
1808.47
247.038
234.136
233.928
234.333
232.273
563.34
665.22
710.182
794.591
1301.95
1016.74
634.708
628.787
629.521
629.849
639.31
660.439
1136.75
1840.88
235.949
234.047
233.902
234.219
221.93
418.548
550.344
603.68
500.579
1125.69
692.748
625.705
627.963
629.239
628.827
639.106
649.051
756.259
1827.41
232.08
234.218
234.036
221.981
177.847
262.334
407.383
532.573
67.5106
785.497
624.127
624.109
627.209
629.04
626.044
631.877
628.89
703.658
1692.77
235.114
234.17
226.183
170.413
108.141
57.0491
151.024
566.019
-91.4843
593.522
612.491
622.657
626.706
624.238
814.487
601.358
438.91
914.876
1544.03
227.464
230.256
181.066
113.455
48.7054
42.1756
40.3125
589.54
161.117
522.885
606.56
618.812
601.152
670.679
1201.39
504.481
331.271
741.185
1283.01
222.267
191.421
136.103
53.9379
43.3028
42.2396
49.0162
522.404
371.651
486.626
589.182
552.649
512.963
610.328
1175.48
362.77
289.108
495.197
984.42
21.4768
13.7833
12.3384
12.004
20.7199
44.9111
73.415
103.982
135.836
165.891
194.581
221.128
245.196
267.294
287.947
308.03
328.502
350.498
373.667
394.072
404.309
398.174
378.056
4.93564
4.70634
4.57269
4.68175
4.70829
4.64712
5.03157
9.58284
23.4304
45.9051
74.2391
101.6
125.217
146.139
165.44
184.583
205.023
229.036
258.854
289.645
307.195
288.152
219.617
4.56895
4.384
4.3191
4.45304
4.52099
4.54464
4.58338
4.60909
4.66338
4.66275
5.80958
12.6131
23.1413
35.237
47.9526
60.9482
77.5472
100.861
139.895
188.562
228.467
201.079
40.8788
4.2233
4.17185
4.14715
4.28952
4.3642
4.39332
4.4211
4.46149
4.47652
4.50818
4.53672
4.58541
4.62788
4.71029
4.98857
5.31622
5.48684
7.58856
28.8399
77.9851
154.284
130.894
28.4597
4.1128
4.09814
4.11112
4.17126
4.20855
4.22904
4.25085
4.27751
4.30774
4.34213
4.37793
4.42741
4.49289
4.62695
4.81606
5.01091
5.2129
5.42252
5.55731
4.14174
45.9148
55.6817
18.9742
3.96262
3.96085
3.97916
4.01329
4.03556
4.05309
4.07189
4.09586
4.12673
4.16333
4.20778
4.26978
4.35616
4.4785
4.64149
4.81976
5.00974
5.18707
5.31256
5.32154
7.51814
9.34163
11.2708
3.78259
3.78985
3.80842
3.82925
3.84703
3.86408
3.88305
3.90607
3.93578
3.97288
4.01948
4.0811
4.16369
4.27399
4.4152
4.57912
4.74059
4.87003
5.11982
5.32594
5.56794
9.25425
11.1021
3.58172
3.59036
3.60825
3.62715
3.64522
3.66335
3.6831
3.7059
3.73344
3.76697
3.80843
3.86141
3.93074
4.02211
4.13936
4.27974
4.42661
4.58636
4.85732
5.20451
4.12636
10.0718
10.3943
3.37317
3.38071
3.39605
3.41415
3.43295
3.45228
3.47278
3.49511
3.51988
3.54771
3.57993
3.61894
3.66846
3.7345
3.82407
3.94199
4.09058
4.30517
4.54891
4.91451
3.81743
8.23143
8.80886
3.15599
3.16226
3.1757
3.19297
3.2122
3.23246
3.25351
3.27523
3.29712
3.31854
3.33956
3.36117
3.38575
3.41917
3.47088
3.55161
3.67397
3.87103
4.06351
4.0688
3.44369
7.16955
7.3053
2.9291
2.93449
2.94686
2.96373
2.98342
3.00461
3.02649
3.04825
3.06818
3.08391
3.09366
3.0963
3.09189
3.08437
3.08238
3.09626
3.14409
3.24833
3.3441
3.27044
2.36397
8.45647
7.7491
2.69163
2.69661
2.70867
2.72578
2.74634
2.76893
2.79254
2.8158
2.83576
2.84823
2.84896
2.83364
2.79852
2.74331
2.67195
2.58939
2.51178
2.49309
2.5156
2.3777
1.37233
14.1524
10.4546
2.4428
2.44789
2.46024
2.47811
2.50007
2.52489
2.55158
2.57833
2.60131
2.61488
2.61181
2.58318
2.51929
2.41351
2.26761
2.05976
1.88825
1.86038
1.86312
1.7717
1.55827
5.5143
6.02543
2.18198
2.18771
2.20069
2.2196
2.24331
2.27107
2.30212
2.33448
2.36428
2.3851
2.38679
2.35471
2.26818
2.11088
1.87363
1.60038
1.4506
1.39302
1.4109
1.46507
1.5269
0.687252
2.17682
1.90893
1.91571
1.92936
1.94919
1.97458
2.0054
2.04132
2.08088
2.12116
2.15615
2.17416
2.15542
2.06323
1.85719
1.52526
1.15336
0.873744
0.724015
0.836039
1.20236
1.48633
1.50819
-0.561711
1.62388
1.63179
1.64581
1.666
1.69234
1.72537
1.76535
1.81194
1.86423
1.91827
1.96432
1.98256
1.92462
1.71129
1.29685
0.641332
-0.0353492
-0.315523
-0.0498727
0.929823
1.43094
1.17773
2.02372
1.32772
1.33626
1.34991
1.36941
1.39521
1.42838
1.46974
1.52019
1.58115
1.65207
1.72979
1.80751
1.85256
1.74628
1.20991
0.41561
-2.24292
-4.34171
-2.1834
-0.211961
1.29218
-3.43129
-2.7035
1.02173
1.02985
1.04206
1.05936
1.08244
1.11253
1.1506
1.19811
1.25756
1.33031
1.41896
1.53799
1.7238
1.98733
0.707733
-2.22767
-3.97504
-5.82006
-3.97547
-4.63566
-6.1729
-4.73547
-5.0297
0.707167
0.713873
0.723468
0.736847
0.754586
0.777625
0.806403
0.841576
0.88402
0.931111
0.974432
0.997605
0.92453
0.630735
-3.12302
-8.12964
-5.41435
-5.21328
-4.58901
-5.96593
-6.14703
-6.72208
-6.5261
0.385601
0.390311
0.396246
0.40405
0.413883
0.425938
0.439468
0.45309
0.463718
0.460875
0.418255
0.279768
-0.15583
-0.845629
-4.33326
-5.4899
-6.79093
-6.53011
-6.01732
-6.84788
-7.05039
-7.44061
-7.39184
0.0594308
0.0618342
0.0633374
0.0642895
0.0642112
0.0622546
0.0560858
0.0415107
0.0108219
-0.0538432
-0.190307
-0.46501
-1.1045
-1.78205
-4.82219
-6.77018
-7.29589
-7.39607
-7.07411
-7.13388
-7.26256
-7.7716
-7.73763
-0.268385
-0.268474
-0.271815
-0.278376
-0.289373
-0.306804
-0.334662
-0.380104
-0.455697
-0.587346
-0.829972
-1.30743
-2.51575
-5.29049
-7.1717
-6.56435
-6.8536
-7.18418
-7.33517
-7.31056
-7.44424
-7.65241
-7.48139
-0.595023
-0.597608
-0.605782
-0.619783
-0.641507
-0.674004
-0.722595
-0.796782
-0.913066
-1.10336
-1.43631
-2.07796
-3.47118
-6.6444
-9.60322
-7.73173
-6.90146
-6.96324
-7.20545
-7.28978
-7.3234
-7.23339
-6.95691
-0.917971
-0.922784
-0.935374
-0.956058
-0.987189
-1.0326
-1.09828
-1.19458
-1.3391
-1.5623
-1.92201
-2.53157
-3.61353
-5.55537
-7.35059
-7.38904
-6.88214
-6.77813
-6.84934
-6.84919
-6.77004
-6.64023
-6.47601
-1.23535
-1.24177
-1.25799
-1.28409
-1.32254
-1.37754
-1.45506
-1.56473
-1.72208
-1.95125
-2.29021
-2.79687
-3.54131
-4.53967
-5.52027
-5.99896
-6.09499
-6.15449
-6.21744
-6.24856
-6.23597
-6.19387
-6.12777
-1.54547
-1.55299
-1.57184
-1.60179
-1.64514
-1.70598
-1.78983
-1.90463
-2.06234
-2.28
-2.57967
-2.98692
-3.51933
-4.15262
-4.76803
-5.20782
-5.4614
-5.62334
-5.73881
-5.81384
-5.85248
-5.86305
-5.85298
-1.8471
-1.8553
-1.87576
-1.90801
-1.95397
-2.01721
-2.10251
-2.21607
-2.36617
-2.56365
-2.82056
-3.14671
-3.54237
-3.9852
-4.42032
-4.78318
-5.05138
-5.24561
-5.38833
-5.49097
-5.56132
-5.60633
-5.632
-2.13962
-2.14837
-2.16939
-2.20248
-2.24908
-2.31202
-2.39507
-2.50292
-2.64109
-2.8158
-3.03304
-3.29588
-3.60016
-3.93014
-4.25743
-4.55084
-4.79338
-4.98613
-5.13715
-5.2539
-5.3425
-5.4083
-5.45592
-2.42289
-2.43211
-2.45292
-2.48558
-2.53124
-2.59193
-2.67035
-2.76985
-2.89405
-3.04639
-3.22936
-3.44312
-3.68325
-3.93917
-4.19486
-4.43332
-4.64301
-4.82036
-4.96701
-5.08649
-5.18263
-5.25907
-5.31929
-2.69728
-2.70683
-2.72691
-2.7582
-2.80166
-2.85871
-2.93115
-3.02115
-3.13098
-3.26248
-3.41645
-3.59189
-3.78501
-3.98875
-4.19343
-4.3889
-4.56736
-4.72478
-4.86043
-4.97542
-5.07184
-5.15198
-5.21814
-2.96362
-2.97321
-2.99216
-3.02144
-3.06181
-3.11426
-3.17995
-3.2602
-3.35626
-3.469
-3.59845
-3.74336
-3.90068
-4.06561
-4.23197
-4.39332
-4.54431
-4.6815
-4.80343
-4.91007
-5.00227
-5.08127
-5.14849
-3.22298
-3.23209
-3.24955
-3.27641
-3.31318
-3.36047
-3.41906
-3.48968
-3.57294
-3.66912
-3.77787
-3.89798
-4.02715
-4.162
-4.29844
-4.43221
-4.55956
-4.6778
-4.78535
-4.88168
-4.96689
-5.04153
-5.10637
-3.47621
-3.48427
-3.49997
-3.52416
-3.55708
-3.59903
-3.65047
-3.71182
-3.78332
-3.86491
-3.95609
-4.05578
-4.16224
-4.27306
-4.38546
-4.49649
-4.60353
-4.70449
-4.79794
-4.88312
-4.95979
-5.02807
-5.08833
-3.7236
-3.73043
-3.74427
-3.76567
-3.79463
-3.83126
-3.8758
-3.92842
-3.98916
-4.05785
-4.13393
-4.21652
-4.30424
-4.39538
-4.48797
-4.57995
-4.66942
-4.75479
-4.83484
-4.90882
-4.97631
-5.0372
-5.09159
-3.96521
-3.97115
-3.98321
-4.0018
-4.02683
-4.05828
-4.09626
-4.14078
-4.19178
-4.24901
-4.31198
-4.37996
-4.45191
-4.52656
-4.60249
-4.67823
-4.7524
-4.82378
-4.8914
-4.95457
-5.01284
-5.06593
-5.11378
-4.20129
-4.20696
-4.21742
-4.2333
-4.25451
-4.28101
-4.31281
-4.34987
-4.39204
-4.4391
-4.4906
-4.54595
-4.60438
-4.66495
-4.72662
-4.78834
-4.84908
-4.90795
-4.96418
-5.01717
-5.06649
-5.11179
-5.15286
-4.43261
-4.43847
-4.44755
-4.4609
-4.4785
-4.50031
-4.52634
-4.55652
-4.5907
-4.62866
-4.67004
-4.71437
-4.76106
-4.80942
-4.85872
-4.90818
-4.95707
-5.00471
-5.05053
-5.09405
-5.13488
-5.17269
-5.20713
-4.66041
-4.66632
-4.67428