/*--------------------------------*- C++ -*----------------------------------*\
| =========                 |                                                 |
| \\      /  F ield         | OpenFOAM: The Open Source CFD Toolbox           |
|  \\    /   O peration     | Version:  v1912                                 |
|   \\  /    A nd           | Website:  www.openfoam.com                      |
|    \\/     M anipulation  |                                                 |
\*---------------------------------------------------------------------------*/
FoamFile
{
    version     2.0;
    format      ascii;
    class       volScalarField;
    location    "0.7";
    object      p_rgh;
}
// * * * * * * * * * * * * * * * * * * * * * * * * * * * * * * * * * * * * * //

dimensions      [1 -1 -2 0 0 0 0];


internalField   nonuniform List<scalar> 
9072
(
512.086
510.299
510.862
516.435
532.947
556.515
579.738
604.345
630.215
656.2
681.639
706.3
730.215
753.471
775.875
795.241
804.372
822.924
843.338
833.361
845.218
875.313
935.143
510.954
509.426
510.033
514.517
531.159
556.021
579.392
603.99
629.928
656.066
681.615
706.322
730.242
753.477
775.926
796.841
803.088
817.099
842.607
841.223
819.682
849.877
921.414
508.974
507.978
508.15
508.945
525.019
554.897
578.896
603.378
629.38
655.724
681.486
706.34
730.295
753.392
775.478
795.908
808.362
818.628
850.153
856.665
797.85
831.861
904.137
507.006
506.063
505.21
497.324
510.346
553.043
578.703
602.695
628.681
655.271
681.324
706.412
730.471
753.501
775.379
795.522
811.319
826.435
851.557
860.947
809.956
860.252
895.264
505.883
503.549
501.323
485.731
498.551
552.964
578.877
601.877
627.864
654.772
681.208
706.616
730.837
753.857
775.628
795.816
813.445
830.705
851.865
864.571
859.48
872.423
891.481
505.956
500.798
497.309
481.461
497.996
551.367
577.828
600.512
626.877
654.275
681.202
707.013
731.446
754.489
776.207
796.539
815.283
833.847
853.91
869.447
874.659
881.799
890.283
506.441
499.324
493.242
481.603
495.561
537.762
573.225
598.256
625.643
653.813
681.361
707.663
732.342
755.412
777.075
797.523
816.992
836.512
856.729
874.045
883.925
888.711
890.251
490.618
499.428
480.623
409.862
435.547
532.073
566.845
595.319
624.171
653.439
681.742
708.637
733.571
756.643
778.189
798.648
818.555
838.865
859.955
879.29
892.089
895.528
890.769
434.809
340.35
286.481
304.314
280.274
568.584
892.412
881.489
972.411
1151.08
1330.86
1179.66
1058.67
809.465
739.037
768.166
916.044
1412.71
1753.51
445.581
251.654
249.101
238.485
235.526
435.84
850.295
855.393
940.868
1156.25
1381.39
1114.41
822.368
703.126
707.637
736.21
845.041
1258.51
1755.66
456.515
238.715
234.047
234.179
234.993
429.52
781.885
817.938
866.005
1120.74
1457.34
819.762
628.882
629.504
629.804
632.563
648.178
777.415
1814.47
481.077
239.18
234.143
234.185
314.764
470.924
696.367
785.472
717.928
943.871
1262.7
630.31
627.191
629.241
629.401
631.449
649.498
659.114
1545.67
418.255
234.552
234.43
250.898
442.794
449.294
575.382
796.937
478.624
648.717
915.279
622.396
626.32
629.012
630.284
803.952
822.03
664.734
1199.86
287.739
235.096
242.895
510.122
444.448
378.862
167.977
885.457
405.861
535.007
681.576
620.244
625.659
660.731
981.025
1115.89
724.345
833.92
1613.81
245.04
234.838
574.362
515.864
441.38
43.9941
41.4989
910.384
618.408
715.165
583.09
617.019
839.527
954.724
1238.26
1023.95
344.635
427.69
1957.1
597.591
635.883
588.572
519.829
62.7409
43.7318
42.8509
866.919
731.559
430.686
558.154
962.845
936.934
906.113
1002.71
1054.19
291.658
353.759
1884.86
25.7483
203.404
152.194
113.043
173.309
422.838
544.405
590.736
622.05
653.284
682.567
710.356
735.604
758.634
779.919
800.172
820.308
841.438
864.245
886.8
903.14
905.503
890.739
5.53203
5.46487
5.23218
5.25169
5.33194
5.31592
5.29519
47.1794
223.325
505.668
657.899
715.861
741.148
763.306
783.324
802.276
821.931
843.724
870.614
902.237
928.586
931.555
885.552
5.2782
5.27002
5.06519
5.13425
5.25238
5.28331
5.32815
5.35419
5.39236
5.42348
7.30567
102.766
315.929
522.2
665.722
755.921
818.658
839.995
871.291
916.607
964.554
981.998
642.554
5.17519
5.27267
5.01344
5.09395
5.21674
5.2576
5.28482
5.35241
5.34897
5.36924
5.40339
5.44305
5.48549
5.52825
5.6984
6.06413
6.17225
47.2398
200.951
716.564
993.559
785.593
92.94
5.10932
5.13954
5.10421
5.14097
5.19754
5.22212
5.24231
5.26656
5.29553
5.32803
5.3608
5.40768
5.46797
5.56682
5.71798
5.92196
6.10813
6.30769
6.68211
5.63943
325.269
249.866
216.296
5.05148
5.09189
5.09823
5.1247
5.15405
5.17258
5.19023
5.21112
5.23873
5.27255
5.31362
5.36519
5.43777
5.53991
5.68435
5.85737
6.04552
6.22651
6.38837
6.463
7.37064
99.1913
171.755
4.99444
5.03898
5.0512
5.07252
5.09176
5.10882
5.12654
5.14721
5.17348
5.20673
5.24825
5.30137
5.37279
5.46833
5.59432
5.74835
5.91782
6.0573
6.78432
6.69871
7.53657
129.172
25.4802
4.91736
4.9633
4.97734
4.99632
5.0148
5.0327
5.05146
5.07254
5.09752
5.12791
5.16505
5.21173
5.27223
5.35186
5.45597
5.58573
5.73332
5.87903
6.68293
6.70683
7.78867
142.755
12.4375
4.83096
4.87947
4.8916
4.9087
4.92723
4.94624
4.96607
4.9874
5.01088
5.03708
5.06686
5.10212
5.14579
5.20269
5.27967
5.38308
5.51575
5.68934
5.94866
6.2602
9.2236
122.162
10.8849
4.7347
4.78699
4.79734
4.81295
4.83134
4.85114
4.87181
4.89322
4.91512
4.93682
4.95797
4.97911
5.00174
5.02973
5.07099
5.13586
5.23527
5.38901
5.62173
5.85573
52.7316
96.3312
9.5691
4.62813
4.68493
4.69417
4.70897
4.72743
4.748
4.76962
4.79157
4.8127
4.83082
4.84372
4.85003
4.84896
4.84218
4.83615
4.84064
4.86861
4.9426
5.06714
5.14332
19.0365
130.206
10.2171
4.51046
4.5725
4.58128
4.59601
4.61503
4.63676
4.65998
4.68366
4.70575
4.72251
4.72963
4.72288
4.69799
4.65259
4.58848
4.51207
4.58613
4.57242
4.53487
4.57295
6.99435
150.078
16.1209
4.38095
4.44896
4.45784
4.47309
4.49317
4.51668
4.54258
4.56964
4.59511
4.61419
4.62044
4.6058
4.56074
4.47597
4.35855
4.53224
4.32329
3.87306
3.87321
3.89996
4.18208
133.24
183.692
4.23911
4.31374
4.32313
4.33918
4.36061
4.38642
4.41596
4.44803
4.47973
4.50604
4.51883
4.50578
4.44954
4.32792
4.37232
4.24477
3.63839
3.5434
3.52236
3.57901
3.77689
16.9088
201.421
4.08492
4.16654
4.17664
4.19344
4.2161
4.24421
4.27767
4.31568
4.35609
4.39478
4.42316
4.42601
4.37654
4.23072
4.02696
3.61491
3.25068
3.03979
2.98143
3.28963
3.66139
4.32515
93.1124
3.91897
4.00739
4.01812
4.03523
4.05847
4.08807
4.12459
4.16793
4.21759
4.27158
4.32326
4.35907
4.34772
4.2237
3.90774
3.38585
2.62814
2.23462
1.90457
2.86033
3.62932
3.9789
5.60809
3.74253
3.83681
3.84764
3.86419
3.88674
3.91609
3.95328
3.99902
4.05459
4.12081
4.19562
4.27491
4.34295
4.34459
4.01623
3.49313
46.9286
45.6238
-0.740039
1.54775
30.6444
211.544
212.907
3.55713
3.65579
3.66579
3.68051
3.70058
3.72701
3.76099
3.80351
3.85668
3.92272
4.00268
4.10345
4.24967
4.56636
13.8358
63.9662
60.4664
43.4239
-1.14599
1.94466
13.787
1.29289
17.9518
3.36426
3.46574
3.47385
3.48532
3.50078
3.52107
3.54695
3.57878
3.6176
3.66305
3.70966
3.746
3.74392
3.72312
16.4911
61.2273
59.8182
-1.24617
-0.0506706
3.03052
9.84868
-3.57671
-2.35358
3.16574
3.26858
3.27389
3.28077
3.28956
3.30052
3.31347
3.32725
3.34003
3.34598
3.3281
3.24788
2.9997
2.44696
1.74802
31.5088
0.0151021
-3.3172
11.3061
11.0811
2.39937
-4.23301
-4.6686
2.96412
3.06677
3.0687
3.06997
3.07047
3.06963
3.06598
3.05626
3.03501
2.99056
2.89659
2.70181
2.27031
1.76604
23.9547
18.9788
-3.89117
-4.21103
10.6057
-4.08202
-4.13814
-4.38356
-4.73766
2.76229
2.86323
2.8615
2.85661
2.84803
2.83415
2.81218
2.77667
2.71827
2.61925
2.44178
2.1042
1.39322
5.98017
21.5926
20.8241
-3.45506
-3.80282
-4.12769
-4.17554
-4.21669
-4.40473
-4.50232
2.56292
2.66084
2.65547
2.64448
2.62693
2.60029
2.56063
2.50077
2.40827
2.26039
2.01132
1.55597
0.618974
-1.33337
11.1604
18.5857
-1.14995
-3.35747
-3.74895
-3.98872
-4.05606
-4.04541
-3.85757
2.3684
2.46224
2.45359
2.43705
2.41153
2.37383
2.31924
2.23993
2.12232
1.94347
1.66193
1.19652
0.38756
-1.09562
-3.15429
-4.14025
-3.68279
-3.38973
-3.41874
-3.47461
-3.43359
-3.32898
-3.17975
2.18085
2.26956
2.25822
2.23713
2.2053
2.15918
2.09383
2.00176
1.87066
1.68111
1.40295
0.988725
0.371303
-0.507799
-1.55812
-2.32469
-2.55758
-2.61544
-2.681
-2.73189
-2.73986
-2.7114
-2.65654
2.00106
2.08422
2.07105
2.04669
2.01047
1.95897
1.88742
1.7893
1.65485
1.46963
1.21401
0.86374
0.394678
-0.196078
-0.841763
-1.38321
-1.71981
-1.91735
-2.05417
-2.1493
-2.20519
-2.22874
-2.22813
1.82961
1.90772
1.89318
1.86688
1.82814
1.77407
1.70047
1.60192
1.47129
1.29899
1.07327
0.782609
0.420703
-0.0033446
-0.450947
-0.856374
-1.1711
-1.3988
-1.5653
-1.68694
-1.77252
-1.82936
-1.86402
1.66694
1.74035
1.72505
1.69804
1.65849
1.60412
1.53167
1.43686
1.31458
1.15895
0.963618
0.723628
0.43891
0.118967
-0.2138
-0.527499
-0.796293
-1.01308
-1.18393
-1.31697
-1.41895
-1.49554
-1.55169
1.51294
1.58208
1.56664
1.53989
1.50094
1.44805
1.37889
1.29038
1.17898
1.0411
0.873656
0.675078
0.447219
0.197478
-0.0605439
-0.309549
-0.534531
-0.728082
-0.889703
-1.02229
-1.12963
-1.21548
-1.28338
1.36724
1.43254
1.41743
1.3917
1.35448
1.30443
1.23993
1.159
1.05936
0.938869
0.796143
0.63116
0.446203
0.246698
0.0411749
-0.160081
-0.347785
-0.515997
-0.66248
-0.787578
-0.892974
-0.980988
-1.05384
1.22936
1.29117
1.27672
1.25255
1.21782
1.17155
1.11264
1.03983
0.951822
0.847491
0.726324
0.588889
0.437277
0.275449
0.108977
-0.0556455
-0.212366
-0.356757
-0.486399
-0.600611
-0.699911
-0.785332
-0.85825
1.0986
1.15723
1.1437
1.12145
1.08967
1.04774
0.994899
0.930382
0.8535
0.76378
0.661227
0.546576
0.421579
0.289099
0.152911
0.017287
-0.113676
-0.23674
-0.349766
-0.45172
-0.542447
-0.622297
-0.69191
0.974133
1.0298
1.01755
0.997427
0.968878
0.931502
0.884863
0.828508
0.762101
0.685526
0.599046
0.503431
0.400093
0.291129
0.179149
0.0670758
-0.0422623
-0.146481
-0.243819
-0.333187
-0.414121
-0.486569
-0.550762
0.855159
0.908027
0.897415
0.879587
0.854388
0.821618
0.781061
0.732501
0.675812
0.611055
0.538581
0.459105
0.373757
0.284092
0.191965
0.099426
0.00848191
-0.0791134
-0.161947
-0.23903
-0.309792
-0.373986
-0.431586
0.741048
0.791447
0.782598
0.767109
0.745271
0.717041
0.682336
0.641086
0.593308
0.53915
0.478971
0.413381
0.343271
0.269806
0.194331
0.11831
0.043193
-0.0297198
-0.0993271
-0.164791
-0.22555
-0.281255
-0.331716
0.631359
0.679967
0.672549
0.659297
0.640724
0.61687
0.587723
0.553285
0.513646
0.46899
0.419649
0.366133
0.309132
0.249515
0.188263
0.126435
0.0650821
0.00516739
-0.0524658
-0.107137
-0.158337
-0.205688
-0.248884
0.525644
0.573357
0.566727
0.555483
0.539997
0.520289
0.496363
0.46825
0.43605
0.399942
0.360217
0.317294
0.271704
0.224092
0.175167
0.125693
0.076431
0.0280846
-0.0187141
-0.0634353
-0.105653
-0.145017
-0.181178
0.423152
0.470749
0.464446
0.455002
0.442404
0.426582
0.40752
0.385244
0.359838
0.331451
0.300322
0.266785
0.23124
0.194158
0.156048
0.117455
0.0789215
0.0409469
0.0039791
-0.0316047
-0.0654941
-0.0973929
-0.126935
0.322732
0.370682
0.364793
0.357101
0.347239
0.335061
0.320517
0.303613
0.284409
0.26302
0.239632
0.214489
0.187882
0.160146
0.131637
0.102734
0.0738091
0.0451967
0.0171884
-0.00998282
-0.0361324
-0.0610584
-0.0844522
0.223233
0.271787
0.266811
0.260975
0.253774
0.245046
0.234716
0.222773
0.209252
0.194239
0.177865
0.16029
0.141713
0.122358
0.102461
0.0822701
0.0620218
0.0419282
0.0221635
0.00283912
-0.0160082
-0.0343628
-0.0520926
0.123965
0.173224
0.16969
0.165877
0.161318
0.155887
0.149514
0.142181
0.133904
0.124738
0.114761
0.104067
0.092771
0.0810029
0.0689033
0.056619
0.0442866
0.0320226
0.0199146
0.0079794
-0.00387425
-0.0158721
-0.028254
0.0238255
0.0745745
0.0728256
0.0711962
0.0692742
0.0670109
0.0643682
0.0613405
0.0579307
0.0541598
0.0500611
0.0456727
0.0410392
0.0362116
0.0312484
0.0262101
0.0211529
0.0161182
0.0111339
0.00618258
0.00115463
-0.00432602
-0.011285
871.288
839.509
808.954
772.614
816.852
781.173
754.41
739.733
99.3766
57.0906
41.4031
36.3629
29.3977
30.1436
30.7919
31.7622
22
23.2179
23.8905
24.9696
15.2852
16.7595
18.1626
20.6951
13.1784
13.611
14.1331
17.1163
11.8687
11.752
11.7568
12.1066
10.5295
10.2726
10.0047
10.1027
9.21044
8.92432
8.31955
8.04088
10.0106
9.52009
7.45915
5.80633
81.2216
129.772
5.41446
4.83351
47.4589
173.48
177.989
39.9463
142.207
78.4382
193.723
193.121
207.744
82.5306
76.1298
113.623
211.069
173.512
80.7615
162.528
213.929
64.8127
230.719
234.279
-1.01163
4.27893
6.64831
-3.25158
-3.43082
-2.84575
-3.04872
-2.99383
-4.12108
-3.88089
-3.53634
-3.35223
-4.38331
-4.11969
-3.81886
-3.54797
-4.14559
-3.86456
-3.62147
-3.41913
-3.56043
-3.39188
-3.2534
-3.13483
-3.03021
-2.95087
-2.87753
-2.81159
-2.59269
-2.55598
-2.51995
-2.48571
-2.21315
-2.20182
-2.18932
-2.17605
-1.87989
-1.8846
-1.8875
-1.88868
-1.58666
-1.6016
-1.61465
-1.62567
-1.32977
-1.35113
-1.37054
-1.38776
-1.10609
-1.13095
-1.15385
-1.17455
-0.91212
-0.938228
-0.962504
-0.984764
-0.744389
-0.770157
-0.794333
-0.816749
-0.599905
-0.624293
-0.647312
-0.66882
-0.476198
-0.498505
-0.51963
-0.539473
-0.371104
-0.390875
-0.409629
-0.427292
-0.282747
-0.29976
-0.315883
-0.331048
-0.209594
-0.223832
-0.237248
-0.24977
-0.150196
-0.161804
-0.172651
-0.182648
-0.103053
-0.11234
-0.120961
-0.128794
-0.0665889
-0.0739363
-0.0807814
-0.0869793
-0.0391168
-0.0448694
-0.0503695
-0.0554584
-0.0187214
-0.0231002
-0.0275735
-0.0319957
706.244
660.544
593.83
143.715
43.8123
43.5949
103.276
871.098
418.414
424.049
717.738
911.111
709.704
587.022
640.246
836.481
275.694
352.227
1297.82
704.658
368.113
42.0729
42.9972
43.6722
44.4777
354.427
871.174
394.332
533.402
938.396
661.166
213.471
219.058
225.03
695.789
313.807
318.967
152.948
38.6448
44.2784
44.3907
42.9352
43.1529
667.9
858.484
1177.84
982.757
940.692
347.402
216.495
213.082
217.495
219.281
693.236
434.838
184.438
215.177
37.5099
532.21
853.92
846.356
918.709
1057.23
1276.08
1251.07
927.447
319.14
212.242
212.658
211.882
216.6
215.786
237.952
306.944
221.286
213.081
30.3948
159.454
73.6004
271.218
504.463
586.753
739.415
751.083
293.809
209.189
211.301
213.17
212.516
221.544
226.568
202.743
243.017
212.476
215.395
54.6475
105.033
59.0241
103.442
170.398
466.816
413.414
205.953
207.276
210.431
213.292
214.061
212.836
212.651
992.035
212.965
212.777
212.888
212.744
37.4208
13.7358
-12.5765
125.495
185.908
196.588
201.054
207.001
210.055
212.318
213.346
213.812
213.624
299.927
1377.64
214.317
214.794
214.945
213.797
13.3335
40.7319
176.8
1059.17
908.889
200.844
276.561
209.452
210.671
212.373
213.802
216.217
511.038
1546.05
1446.96
365.978
543.455
1156.21
1072.7
12.1098
189.997
1090.62
1159.74
1191.06
1257.3
282.347
209.452
211.295
230.294
765.339
1531.9
1635.92
1615.79
1502.55
1603.01
1594.86
1543.68
1653.76
10.3826
425.903
1206.44
2.63548
0.0335783
1073.96
1379.52
1355.31
1513.37
1763.45
1740.4
1711.96
1683.46
1658.23
1650.14
1575.89
340.741
8.50559
1374.76
4.91846
619.518
217.192
-2.52632
-3.71783
-3.91693
-2.6847
324.218
916.81
1564.23
1760.43
1667.63
1495.95
1086.77
371.358
27.4325
5.19473
3.70353
319.619
4.88399
3.88766
139.537
0.626902
-4.37925
-4.46636
-3.17241
-2.19667
-1.29908
0.22114
-0.347723
-1.18438
-1.54874
-0.854334
0.55558
55.8128
52.7055
4.3666
508.867
15.9182
18.477
187.861
124.791
-4.82772
-4.44593
-3.13261
-2.31471
-1.63188
1.66972
0.810838
-0.62819
-1.69752
-1.1878
-0.683452
0.54196
11.0946
-0.711421
59.9688
188.269
109.698
215.519
36.89
-4.32323
-3.90775
-3.35547
-2.66375
5.8359
9.88639
1.12443
-0.477519
-1.16065
0.0138152
0.0945928
-1.16187
-1.05324
-1.48387
4.71533
105.499
224.977
174.319
-4.41611
-3.98529
15.506
-2.59498
6.2392
8.16377
9.4497
7.00704
1.33214
0.344968
-0.137288
-1.33911
-1.14212
-0.926929
-0.71948
1.80716
238.447
197.919
-4.50054
-4.68259
7.69295
25.6664
25.0865
3.69318
8.90286
3.34025
0.662822
-0.584579
-1.85063
-1.62844
-1.47349
-1.24618
-1.08649
-0.492211
-1.29793
54.3139
-3.95584
-4.24013
-4.73973
11.5408
25.2009
2.21118
7.92054
2.77908
1.08522
-0.397963
-0.1346
-0.96146
-1.27748
-1.51273
-1.35042
-1.19679
-1.16784
-1.18624
-3.33613
-1.54615
-1.00773
-1.57363
-4.71212
-1.75774
-4.12336
16.255
22.1019
23.4563
10.1068
-0.673855
1.39839
-1.36196
-1.46209
-1.39595
-1.25493
-1.1235
-1.09649
-3.06521
-3.30936
-3.58893
-3.88059
-4.27954
-4.27052
-3.66289
-3.14854
-2.83163
8.78097
24.2746
-0.675956
2.55672
-1.3108
-1.39891
-1.42066
-1.3096
-0.83576
-0.987355
-3.18641
-3.23129
-3.3877
-3.54636
-3.66832
-3.60685
-3.28424
-2.92685
-2.73904
-2.57708
20.549
16.6887
3.0146
-1.25188
-1.31236
-1.43731
-1.39467
39.4195
-0.328731
-3.31081
-3.19445
-3.21914
-3.26505
-3.27691
-3.20037
-3.01344
-2.75194
-2.57377
-2.46012
-2.25961
26.2381
4.54704
0.0504524
-1.1594
-1.28792
-1.32922
41.587
3.82444
-3.22681
-3.0676
-3.02358
-3.00718
-2.97526
-2.89794
-2.76956
-2.60126
-2.4437
-1.04535
-1.89245
4.37628
20.1286
0.0273754
-0.459448
-0.994808
-0.762617
43.4342
5.70761
-3.00857
-2.87053
-2.8055
-2.76245
-2.71432
-2.64371
-2.54411
-2.43709
-1.24842
0.354388
0.582251
-1.65135
22.5763
1.9394
-0.570112
-0.719138
24.4928
3.17009
67.0622
-2.73435
-2.6343
-2.57276
-2.52509
-2.47586
-2.41484
-2.34
-2.14209
0.479533
-0.224037
-1.80592
-1.62894
-1.47715
9.8872
-0.850018
-0.446823
27.117
0.0362146
0.0251937
-2.44344
-2.38132
-2.3355
-2.2956
-2.25359
-2.20308
-2.1408
-2.06311
-0.588828
-1.73505
-1.15093
-1.58122
-1.48693
6.49063
-0.630735
0.504883
26.8972
0.450693
3.02135
-2.15834
-2.12828
-2.10189
-2.0752
-2.04444
-2.00593
-1.95661
-1.8941
-1.81551
-0.767284
-0.968056
-1.51706
-1.45453
-1.24033
5.17589
-0.127068
17.3208
0.221987
2.58714
-1.88862
-1.88404
-1.87625
-1.86402
-1.84593
-1.82055
-1.78649
-1.7426
-1.69012
-0.619306
-1.42987
-1.42463
5.89033
-1.34345
0.432264
-0.231046
19.1166
1.49858
0.987012
-1.63802
-1.65261
-1.66058
-1.66187
-1.65641
-1.64426
-1.62533
-1.59991
-1.15679
-0.485956
-1.41474
-1.26723
6.6041
-0.970955
-0.779541
0.0987887
25.0588
-0.204818
0.322775
-1.40817
-1.43616
-1.45625
-1.46905
-1.47507
-1.47514
-1.47017
-1.46142
-0.42476
-0.896199
-1.32544
-1.15224
5.64641
0.807201
0.462306
2.82233
17.1381
-0.304912
9.18884
-1.19965
-1.2361
-1.26459
-1.28621
-1.30178
-1.3124
-1.31988
-1.32537
-1.19921
-1.33203
-1.29842
-1.12462
0.403353
1.45274
1.9904
4.48645
32.5718
-0.51797
11.6731
-1.01211
-1.05308
-1.08665
-1.11427
-1.1371
-1.15639
-1.17477
-1.19201
-1.21
-1.28796
-0.932852
-0.880404
-1.13918
0.679618
-0.341708
24.2135
11.6089
-0.621483
13.0496
-0.844525
-0.887025
-0.923038
-0.954173
-0.982045
-1.00804
-1.03284
-1.03356
-1.10159
-1.27273
-1.03237
-1.52888
-1.40735
5.38178
0.937866
5.89823
7.61763
-0.591114
33.8759
-0.695671
-0.73749
-0.773861
-0.806471
-0.837506
-0.86845
-0.866057
-0.913875
-1.01596
-0.79323
-1.54493
-0.803389
-0.815881
8.69929
-0.647083
16.6214
7.02882
-0.509599
25.2245
-0.564403
-0.603867
-0.639068
-0.671559
-0.611287
-0.510402
-0.774021
-0.805558
-0.847113
-0.543097
-1.36583
-0.837864
8.05981
9.21622
0.0535887
20.2258
-0.407866
-0.410791
2.17673
-0.449579
-0.4853
-0.518071
-0.537234
-0.259457
-0.555031
-0.66054
-0.682339
-0.670134
-0.424266
-0.945358
-1.40665
-1.02787
0.691977
4.8038
8.64542
-0.318383
-0.360981
0.560834
-0.350144
-0.38058
-0.408805
-0.140551
-0.316651
-0.513145
-0.570795
-0.607776
-0.0815113
-0.570266
-0.734986
-1.03994
-0.967726
26.4824
28.3708
14.4255
-0.327909
-0.382189
0.382237
-0.265332
-0.28918
-0.310398
-0.33103
-0.358625
-0.412662
-0.510259
-0.492865
0.446238
-0.564468
-0.700898
-0.94853
12.8208
25.8527
-0.378437
-0.36522
-0.338769
-0.363167
-0.0405693
-0.194781
-0.212021
-0.225207
-0.236443
-0.255974
-0.313127
-0.436188
1.08036
-0.26225
-0.48076
-0.59027
-0.435321
18.564
-0.495265
-0.406809
-0.358653
-0.334914
-0.339095
1.31449
-0.138029
-0.149674
-0.155009
-0.154764
-0.157107
0.125992
1.96389
0.569848
-0.32
-0.327345
-0.235842
8.94665
-0.490587
-0.428709
-0.378036
-0.342774
-0.324085
-0.32205
-0.347641
-0.0941318
-0.101855
-0.101173
-0.0898175
-0.0700746
0.797305
2.17657
-0.220328
0.0377256
1.31496
2.86906
-0.381688
-0.388901
-0.366324
-0.338523
-0.316325
-0.303391
-0.297525
-0.297158
-0.0614176
-0.0676039
-0.0648648
-0.0479366
-0.0135185
0.128536
1.79179
0.665564
1.0558
-0.200456
-0.265219
-0.30476
-0.315806
-0.309056
-0.295971
-0.28407
-0.275922
-0.272684
-0.2725
-0.037579
-0.0447173
-0.0447807
-0.0314112
0.00528743
0.172541
1.58354
-0.441108
-0.362447
-0.262864
-0.250617
-0.255723
-0.259908
-0.258871
-0.254109
-0.249377
-0.246583
-0.246846
-0.248251
511.031
510.162
512.673
523.07
544.701
568.078
591.816
617.201
643.246
669.012
694.067
718.346
741.918
764.837
786.475
800.01
810.82
837.24
836.932
841.461
850.44
913.911
931.711
510.222
509.409
511.388
520.877
543.702
567.716
591.466
616.865
643.034
668.941
694.073
718.374
741.936
764.853
786.63
802.333
805.204
832.432
842.77
835.042
817.898
896.633
925.495
508.466
508
508.139
513.958
540.384
567.217
590.913
616.256
642.582
668.711
694.028
718.426
741.949
764.598
785.958
804.145
810.686
834.217
860.267
826.616
804.105
882.379
913.331
506.331
506.081
502.101
497.962
532.654
567.356
590.437
615.511
641.992
668.405
693.996
718.571
742.115
764.609
785.73
804.269
817.659
838.532
861.454
840.137
816.24
880.589
902.42
503.995
503.504
494.918
483.914
527.436
568.353
589.902
614.628
641.314
668.099
694.055
718.878
742.496
764.912
785.958
805.015
821.63
841.035
860.812
862.455
862.987
883.8
895.786
502.415
500.17
490.182
481.81
526.261
567.293
588.494
613.43
640.566
667.851
694.269
719.407
743.135
765.514
786.557
806.104
824.372
843.843
862.915
872.96
877.523
887.071
892.489
503.5
496.683
486.33
486.932
513.183
559.896
585.419
611.734
639.744
667.712
694.699
720.213
744.065
766.408
787.44
807.348
826.64
846.646
866.125
879.951
886.737
890.44
890.387
505.809
494.763
453.747
387.38
515.787
551.347
581.22
609.586
638.884
667.731
695.411
721.357
745.318
767.584
788.523
808.624
828.59
849.39
870.127
886.774
895.038
894.475
889.284
396.069
304.28
294.808
295.688
330.276
843.466
879.15
915.507
1046.01
1272.49
1215.79
1170.87
914.237
754.474
746.684
811.881
1125.2
1643.9
1834.94
357.113
242.974
249.638
234.699
249.037
788.225
844.277
889.168
1019.21
1354.95
1240.56
985.979
728.619
700.731
716.954
774.15
987.864
1568.45
1855.59
323.524
234.275
234.067
234.472
274.298
695.484
797.395
842.357
926.766
1434.13
1148.23
649.199
629.031
629.766
630.114
639.697
662.097
1248
1972.6
342.916
234.263
234.103
234.497
410.344
609.46
741.263
794.596
691.498
1316.61
825.011
626.158
628.405
629.593
629.343
639.815
651.059
784.915
2017.67
301.894
234.518
234.325
407.983
426.79
511.904
657.045
782.236
317.174
1035.06
624.9
624.707
627.844
629.541
697.098
844.535
754.863
725.698
1941.55
314.909
234.587
433.166
477.666
414.966
222.45
412.845
874.422
216.908
885.154
613.257
623.396
627.522
815.471
1105.63
884.949
718.47
1120.92
1850.86
232.633
407.036
547.548
479.608
195.735
42.9523
175.212
956.641
527.727
668.609
607.704
677.106
957.967
1026.9
1417.22
513.493
337.292
914.416
1647.75
424.517
617.362
561.572
348.705
43.8778
42.9321
239.145
947.264
463.288
493.368
634.817
966.547
927.038
987.402
1255.41
460.421
294.49
658.108
1406.86
259.833
157.969
138.609
120.412
289.556
498.319
575.584
606.15
638.005
668.06
696.75
723.296
747.365
769.463
790.115
810.199
830.67
852.666
875.836
896.24
906.478
900.343
880.225
5.57875
5.334
5.2001
5.30911
5.33566
5.27453
13.3645
111.871
370.43
593.995
700.582
728.963
752.581
773.502
792.804
811.946
832.386
856.399
886.217
917.008
934.558
915.514
846.931
5.35613
5.13656
5.07166
5.2056
5.27355
5.30166
5.34474
5.36207
5.41595
5.41541
37.1356
198.763
425.803
603.462
714.361
794.63
829.852
853.417
892.452
941.12
981.023
947.191
232.455
5.22772
5.06002
5.02491
5.16727
5.24195
5.27108
5.31444
5.36851
5.3543
5.38863
5.4146
5.4633
5.5058
5.58822
5.8664
6.19507
15.86
89.9252
418.955
923.348
1031.03
235.023
44.7243
5.18966
5.10998
5.11515
5.17421
5.2115
5.23199
5.2538
5.28047
5.31086
5.34543
5.38119
5.43947
5.50693
5.63961
5.81908
6.01392
6.21599
6.42722
6.60153
71.0701
413.803
217.322
149.303
5.0908
5.09012
5.10908
5.14143
5.16371
5.18123
5.20004
5.22402
5.25491
5.29246
5.33735
5.39794
5.48435
5.60666
5.77024
5.94912
6.13862
6.31582
6.44359
6.52586
10.4251
224.186
12.7653
5.03593
5.04319
5.06176
5.08259
5.10037
5.11742
5.13639
5.15947
5.18925
5.22626
5.27304
5.33446
5.41711
5.52733
5.66854
5.83253
5.99436
6.35821
6.92062
6.91032
13.2491
224.206
12.7161
4.96024
4.96888
4.98678
5.00568
5.02374
5.04188
5.06163
5.08442
5.11197
5.1455
5.18695
5.23995
5.30927
5.40063
5.51789
5.65827
5.80548
6.3077
6.80011
7.08612
44.1636
79.289
12.1432
4.87689
4.88443
4.89977
4.91787
4.93667
4.956
4.9765
4.99883
5.0236
5.05143
5.08365
5.12267
5.17218
5.23822
5.32779
5.44571
5.59445
5.81033
6.06692
6.72417
64.6433
26.589
10.7145
4.78491
4.79117
4.80462
4.82189
4.84111
4.86138
4.88243
4.90415
4.92604
4.94745
4.96847
4.99008
5.01466
5.04808
5.09979
5.18053
5.30289
5.50017
5.71013
6.91811
91.8162
19.0363
9.36649
4.68321
4.6886
4.70097
4.71784
4.73753
4.75873
4.7806
4.80236
4.82229
4.83802
4.84777
4.85042
4.846
4.83848
4.8365
4.85037
4.8982
5.00253
5.10679
5.49048
100.604
28.7427
9.96865
4.57094
4.57592
4.58798
4.60508
4.62564
4.64824
4.67185
4.69511
4.71507
4.72753
4.72826
4.71294
4.67782
4.62262
4.55125
4.47359
4.61081
4.5022
4.58598
4.6702
84.0687
145.911
14.2689
4.4473
4.45239
4.46474
4.48261
4.50457
4.52939
4.55608
4.58283
4.60581
4.61938
4.61631
4.58768
4.52379
4.41809
4.50094
4.42423
4.06743
3.86698
3.88765
3.92388
13.6254
183.768
30.4034
4.31168
4.31741
4.33038
4.34929
4.37301
4.40077
4.43181
4.46418
4.49398
4.5148
4.51648
4.48441
4.39789
4.24484
4.38523
4.05075
3.5805
3.52302
3.54253
3.64985
4.22327
155.575
201.742
4.16382
4.1706
4.18425
4.20408
4.22947
4.26029
4.29621
4.33577
4.37605
4.41104
4.42905
4.41031
4.31815
4.13017
3.86532
3.40841
3.12872
2.97901
3.09818
3.47474
3.87218
7.23533
210.735
4.00396
4.01188
4.0259
4.04609
4.07243
4.10545
4.14544
4.19202
4.24432
4.29836
4.34441
4.36265
4.30513
4.09153
3.67712
3.02151
2.34482
2.06465
2.33042
3.3118
3.84216
3.92186
100.39
3.833
3.84154
3.85519
3.87469
3.90049
3.93366
3.97502
4.02548
4.08644
4.15735
4.23508
4.31279
4.35788
4.25159
3.71519
11.3965
54.9636
9.88069
0.334584
2.67095
192.343
211.547
214.211
3.6522
3.66033
3.67254
3.68984
3.71292
3.74301
3.78108
3.82859
3.88803
3.96079
4.04944
4.16865
4.36292
4.88997
58.404
62.0066
59.3237
-0.57727
-0.491156
13.8225
0.554796
9.30049
20.2614
3.46284
3.46955
3.47914
3.49252
3.51026
3.5333
3.56208
3.59725
3.63969
3.68678
3.73011
3.75384
3.70586
4.05855
56.0257
59.3654
19.7798
-0.549105
0.173238
10.6087
7.99587
-2.8132
-3.73779
3.26647
3.27118
3.27711
3.28492
3.29475
3.30681
3.32034
3.33396
3.34459
3.34174
3.29913
3.16085
2.73299
2.19891
14.7977
27.0035
-3.64946
1.78266
11.4305
10.5692
-3.9849
-4.53987
-4.41596
3.06549
3.0679
3.0694
3.07035
3.07027
3.06832
3.06215
3.04757
3.01689
2.95222
2.81576
2.54117
1.9135
11.9198
21.8353
1.8794
-4.17777
1.31144
3.72535
-4.1157
-4.19749
-4.66059
-4.61744
2.86286
2.86277
2.85943
2.85287
2.84188
2.82444
2.79659
2.75115
2.67555
2.5439
2.30128
1.82401
0.631859
22.7542
20.8729
9.99657
-3.62211
-3.45535
-4.19816
-4.16898
-4.29145
-4.52037
-4.35012
2.66142
2.65884
2.65066
2.63666
2.61494
2.58244
2.53385
2.45966
2.34338
2.15309
1.82013
1.17859
-0.188899
-0.965388
17.7879
9.26759
-3.35142
-3.54918
-3.90466
-4.03275
-4.06688
-3.97692
-3.70031
2.46367
2.45886
2.44627
2.42558
2.39445
2.34904
2.28336
2.18706
2.04254
1.81934
1.45963
0.850072
-0.231818
-2.14516
-3.88217
-3.97206
-3.4669
-3.38539
-3.45997
-3.46475
-3.38822
-3.25859
-3.09437
2.27148
2.26507
2.24884
2.22274
2.1843
2.12929
2.05177
1.94211
1.78475
1.55558
1.21662
0.709966
-0.0344677
-1.03185
-2.01102
-2.49075
-2.58765
-2.64764
-2.7106
-2.74172
-2.72914
-2.68704
-2.62094
2.08656
2.07904
2.06019
2.03024
1.98689
1.92605
1.8422
1.7274
1.56969
1.35203
1.05236
0.645114
0.1127
-0.520569
-1.13595
-1.57576
-1.82937
-1.99131
-2.10678
-2.18181
-2.22045
-2.23102
-2.22095
1.91013
1.90192
1.88146
1.84921
1.80326
1.74001
1.65471
1.54116
1.39105
1.19358
0.936662
0.610518
0.214851
-0.227973
-0.663093
-1.02596
-1.29416
-1.48838
-1.63111
-1.73375
-1.80409
-1.8491
-1.87478
1.7428
1.73405
1.71303
1.67995
1.63334
1.5704
1.48735
1.3795
1.24133
1.06662
0.849382
0.586541
0.282262
-0.0477238
-0.375012
-0.668416
-0.910958
-1.10371
-1.25473
-1.37148
-1.46008
-1.52588
-1.5735
1.58473
1.5755
1.55469
1.52203
1.47637
1.41568
1.33727
1.23777
1.11356
0.961221
0.778254
0.564497
0.324369
0.068448
-0.187249
-0.425704
-0.635393
-0.812741
-0.959393
-1.07887
-1.17502
-1.25145
-1.31167
1.43553
1.42598
1.4059
1.37461
1.33115
1.2741
1.20166
1.11166
1.00183
0.870329
0.716356
0.540921
0.347799
0.144059
-0.0606241
-0.256088
-0.434544
-0.591973
-0.727615
-0.84261
-0.939031
-1.01916
-1.08533
1.29438
1.2848
1.26584
1.23656
1.19619
1.14375
1.07805
0.997808
0.901748
0.789005
0.659554
0.51465
0.357325
0.192392
0.0260322
-0.135319
-0.2863
-0.423498
-0.545423
-0.652064
-0.744267
-0.823267
-0.890487
1.16022
1.15111
1.13365
1.10679
1.07002
1.02273
0.964146
0.893523
0.81026
0.714081
0.605334
0.485218
0.356056
0.221204
0.0847603
-0.0490046
-0.176359
-0.294597
-0.402153
-0.498474
-0.583694
-0.658333
-0.72317
1.03219
1.02412
1.00843
0.984235
0.951321
0.909371
0.857925
0.796575
0.725078
0.643488
0.552309
0.452612
0.346161
0.235336
0.122941
0.0119034
-0.0951381
-0.196094
-0.289542
-0.37472
-0.451395
-0.519672
-0.579932
0.90999
0.903158
0.889321
0.867926
0.838964
0.802328
0.757793
0.705175
0.644428
0.575746
0.499659
0.417076
0.329354
0.23821
0.145619
0.0536377
-0.0358322
-0.121197
-0.201252
-0.275225
-0.342716
-0.403604
-0.457995
0.793578
0.787634
0.775582
0.756988
0.731961
0.700505
0.662532
0.618008
0.56701
0.509781
0.446804
0.378823
0.306877
0.232228
0.156297
0.080553
0.00638552
-0.0649948
-0.132618
-0.195787
-0.25405
-0.307148
-0.354995
0.68268
0.677009
0.666556
0.650673
0.629458
0.602961
0.571163
0.534107
0.491928
0.444877
0.393376
0.338018
0.279591
0.219026
0.157354
0.0956365
0.0348883
-0.0239803
-0.0802067
-0.133198
-0.182513
-0.227821
-0.268886
0.576556
0.570701
0.561613
0.548272
0.53067
0.508853
0.482826
0.452651
0.41847
0.380509
0.339125
0.294795
0.248108
0.199747
0.150451
0.10099
0.0521011
0.00445594
-0.0413633
-0.0848809
-0.125709
-0.163522
-0.197965
0.473956
0.468043
0.460084
0.449106
0.434897
0.417455
0.396779
0.372926
0.346006
0.31621
0.283831
0.249235
0.212861