/*--------------------------------*- C++ -*----------------------------------*\
| =========                 |                                                 |
| \\      /  F ield         | OpenFOAM: The Open Source CFD Toolbox           |
|  \\    /   O peration     | Version:  v1912                                 |
|   \\  /    A nd           | Website:  www.openfoam.com                      |
|    \\/     M anipulation  |                                                 |
\*---------------------------------------------------------------------------*/
FoamFile
{
    version     2.0;
    format      ascii;
    class       surfaceScalarField;
    location    "0.7";
    object      phi;
}
// * * * * * * * * * * * * * * * * * * * * * * * * * * * * * * * * * * * * * //

dimensions      [0 3 -1 0 0 0 0];
oriented        oriented;


internalField   nonuniform List<scalar> 
17936
(
-8.98258e-07
2.50806e-06
-1.6098e-06
2.11758e-06
-2.87662e-06
7.5904e-07
3.19864e-06
-3.47886e-06
2.80214e-07
3.86196e-06
-4.13412e-06
2.72163e-07
3.98076e-06
-3.25873e-06
-7.22035e-07
2.19343e-06
-1.2323e-06
-9.61126e-07
6.49708e-07
-4.77638e-07
-1.7207e-07
6.78551e-07
-1.18096e-06
5.02407e-07
1.85793e-06
-2.59157e-06
7.33635e-07
3.29799e-06
-3.93526e-06
6.37278e-07
4.49678e-06
-4.99147e-06
4.94692e-07
5.43467e-06
-5.83742e-06
4.02755e-07
6.21255e-06
-6.57949e-06
3.66941e-07
6.96802e-06
-7.43117e-06
4.63157e-07
8.04284e-06
-8.79137e-06
7.48531e-07
9.38959e-06
-9.55524e-06
1.65648e-07
1.01016e-05
-1.20261e-05
1.92444e-06
1.41521e-05
-1.36469e-05
-5.05134e-07
1.02743e-05
-5.98183e-06
-4.29248e-06
3.2775e-06
-4.20619e-06
9.28688e-07
1.0029e-05
-1.71011e-05
7.07209e-06
1.92748e-05
-1.59308e-05
-3.34392e-06
9.70168e-06
-3.2604e-06
-6.44128e-06
-4.15313e-06
5.64068e-06
-1.48754e-06
2.51248e-06
-2.75028e-06
-1.09497e-06
1.33277e-06
2.91478e-06
-3.36833e-06
-5.71247e-07
1.0248e-06
4.11291e-06
-4.81765e-06
-6.38328e-07
1.34307e-06
4.97401e-06
-4.24194e-06
1.44655e-06
-2.17862e-06
2.88342e-06
-1.62362e-06
2.03313e-06
-3.29292e-06
8.50131e-07
-5.32329e-07
4.49049e-07
-7.66851e-07
5.46944e-07
-7.80155e-07
-7.5923e-07
9.9244e-07
1.14771e-06
-1.61528e-06
-1.30105e-06
1.76862e-06
2.15598e-06
-2.74285e-06
-1.29433e-06
1.88121e-06
3.33239e-06
-3.88943e-06
-1.07943e-06
1.63647e-06
4.39093e-06
-4.8272e-06
-8.58779e-07
1.29505e-06
5.20082e-06
-5.51934e-06
-7.47508e-07
1.06603e-06
5.79731e-06
-6.05175e-06
-9.66547e-07
1.22099e-06
6.33069e-06
-6.79306e-06
-1.79345e-06
2.25582e-06
7.79221e-06
-9.63015e-06
-2.08261e-06
3.92055e-06
1.18138e-05
-1.32864e-05
-3.56717e-06
5.03984e-06
1.36949e-05
-1.36739e-05
1.75643e-06
-1.77746e-06
1.35144e-05
-1.35809e-05
6.56901e-06
-6.50249e-06
1.49849e-05
-1.77708e-05
-4.84117e-06
7.6271e-06
1.94812e-05
-1.8262e-05
-9.21456e-06
7.99538e-06
1.53866e-05
-1.18387e-05
7.41213e-06
-1.096e-05
7.63593e-06
-3.79129e-06
1.20652e-05
-1.59098e-05
-6.93834e-06
8.04257e-06
-1.10423e-06
2.0121e-06
-2.31439e-06
-1.56068e-06
1.86297e-06
2.90065e-06
-4.13587e-06
-1.80803e-06
3.04325e-06
5.80241e-06
-7.33367e-06
-2.51035e-06
4.04161e-06
7.82564e-06
-6.87607e-06
3.00466e-06
-3.95423e-06
4.81288e-06
-2.79323e-06
4.90199e-06
-6.92163e-06
1.67896e-06
-1.30578e-06
1.1274e-06
-1.50059e-06
1.30296e-06
-1.52998e-06
-1.23264e-06
1.45966e-06
1.90454e-06
-2.36415e-06
-2.24446e-06
2.70407e-06
2.86384e-06
-3.37227e-06
-2.42465e-06
2.93308e-06
3.86179e-06
-4.31333e-06
-2.14125e-06
2.5928e-06
4.71679e-06
-5.06621e-06
-1.68994e-06
2.03935e-06
5.3627e-06
-5.61228e-06
-1.34972e-06
1.59929e-06
5.81784e-06
-5.97551e-06
-1.39884e-06
1.55651e-06
6.05382e-06
-5.99508e-06
-2.27581e-06
2.21707e-06
5.75289e-06
-5.35622e-06
-4.49767e-06
4.101e-06
4.90904e-06
-4.60945e-06
-5.87506e-06
5.57547e-06
4.79875e-06
-5.82219e-06
8.17792e-07
2.05655e-07
7.91731e-06
-1.06172e-05
4.67609e-06
-1.97625e-06
1.23255e-05
-1.2089e-05
-8.68119e-06
8.44469e-06
1.02122e-05
-7.75709e-06
-5.69609e-06
3.24096e-06
5.54697e-06
-3.51122e-06
1.39671e-05
-1.60028e-05
2.21126e-06
-1.48793e-06
1.79777e-05
-1.87011e-05
-8.94314e-06
9.60683e-06
-6.6369e-07
1.61181e-06
-2.32973e-06
-2.35789e-06
3.0758e-06
3.50586e-06
-5.02119e-06
-4.60977e-06
6.1251e-06
6.46075e-06
-7.30623e-06
-5.49744e-06
6.34292e-06
7.20358e-06
-6.23317e-06
4.9565e-06
-5.92691e-06
4.85606e-06
-3.32854e-06
9.04516e-06
-1.05727e-05
2.22675e-06
-1.99457e-06
1.83837e-06
-2.07056e-06
2.13491e-06
-2.39333e-06
-1.68624e-06
1.94466e-06
2.7268e-06
-3.11266e-06
-3.12777e-06
3.51364e-06
3.52188e-06
-3.93058e-06
-3.39363e-06
3.80232e-06
4.31686e-06
-4.66798e-06
-2.99498e-06
3.3461e-06
4.9774e-06
-5.24158e-06
-2.34545e-06
2.60962e-06
5.46113e-06
-5.63808e-06
-1.81193e-06
1.98888e-06
5.77233e-06
-5.85773e-06
-1.68002e-06
1.76542e-06
5.88145e-06
-5.81789e-06
-2.17259e-06
2.10903e-06
5.60902e-06
-5.12415e-06
-3.49218e-06
3.00731e-06
4.24082e-06
-3.15864e-06
-4.51033e-06
3.42814e-06
2.48176e-06
-2.57827e-06
-7.53822e-07
8.50333e-07
3.21274e-06
-4.07991e-06
-2.13768e-07
1.08094e-06
4.50117e-06
-3.24358e-06
-7.45742e-06
6.19984e-06
6.93116e-07
1.45074e-06
-1.00377e-06
-1.14009e-06
-2.07145e-06
1.76335e-06
1.67495e-05
-1.64414e-05
-8.68542e-07
1.64543e-07
1.85139e-05
-1.78099e-05
-9.96866e-06
9.93031e-06
3.83551e-08
9.78675e-07
-1.65265e-06
-3.88383e-06
4.5578e-06
2.26363e-06
-2.54421e-06
-7.15664e-06
7.43722e-06
2.3397e-06
-1.59651e-06
-6.32584e-06
5.58265e-06
3.59471e-07
7.25485e-07
6.92598e-06
-8.01093e-06
-4.73556e-07
-8.87485e-07
1.08005e-05
-9.43947e-06
1.79903e-06
-2.25975e-06
2.06068e-06
-1.59996e-06
2.73293e-06
-3.13484e-06
-2.26586e-06
2.66777e-06
3.48468e-06
-3.81772e-06
-3.8688e-06
4.20184e-06
4.1451e-06
-4.45765e-06
-4.15968e-06
4.47224e-06
4.74589e-06
-5.00243e-06
-3.64786e-06
3.90441e-06
5.2246e-06
-5.41247e-06
-2.83339e-06
3.02126e-06
5.56456e-06
-5.68072e-06
-2.13349e-06
2.24965e-06
5.75713e-06
-5.78494e-06
-1.81895e-06
1.84676e-06
5.74972e-06
-5.63265e-06
-2.0136e-06
1.89653e-06
5.40923e-06
-5.04896e-06
-2.61566e-06
2.25539e-06
4.54999e-06
-4.00288e-06
-2.66544e-06
2.11833e-06
3.60015e-06
-3.463e-06
-7.33346e-07
5.96197e-07
3.40814e-06
-2.90052e-06
-8.84613e-07
3.76995e-07
1.44785e-06
6.05439e-07
-4.6925e-06
2.63921e-06
-2.60392e-06
3.74067e-06
2.84483e-06
-3.98158e-06
-3.56102e-06
2.48542e-06
1.56124e-05
-1.45368e-05
-1.22736e-06
4.0851e-07
1.6895e-05
-1.60762e-05
-9.30107e-06
8.05655e-06
1.24452e-06
-5.47151e-07
5.30397e-07
-4.9265e-06
4.94325e-06
-1.11892e-06
2.47559e-06
-6.91796e-06
5.56129e-06
-4.13261e-06
5.94154e-06
-4.19931e-06
2.39038e-06
-7.70453e-06
8.18159e-06
8.92091e-06
-9.39797e-06
-6.36312e-06
2.75186e-06
6.83984e-06
-3.22858e-06
6.93802e-07
-2.35789e-06
5.10001e-07
1.15408e-06
3.1127e-06
-3.624e-06
-3.14396e-06
3.65527e-06
4.00837e-06
-4.32432e-06
-4.52224e-06
4.8382e-06
4.60382e-06
-4.85517e-06
-4.74884e-06
5.00019e-06
5.07732e-06
-5.2693e-06
-4.12375e-06
4.31573e-06
5.43236e-06
-5.56721e-06
-3.17788e-06
3.31273e-06
5.67224e-06
-5.74532e-06
-2.34182e-06
2.4149e-06
5.78067e-06
-5.77075e-06
-1.8537e-06
1.84378e-06
5.70345e-06
-5.56586e-06
-1.7674e-06
1.62981e-06
5.34535e-06
-5.03248e-06
-1.91911e-06
1.60624e-06
4.64272e-06
-4.23403e-06
-1.6583e-06
1.24961e-06
3.89437e-06
-3.66228e-06
-4.24948e-07
1.9286e-07
3.45762e-06
-3.04663e-06
6.72016e-08
-4.78197e-07
2.16423e-06
-6.6293e-07
-5.73946e-07
-9.27349e-07
-9.17373e-07
1.79293e-06
4.86775e-06
-5.7433e-06
-1.75329e-06
1.15822e-06
1.35589e-05
-1.29638e-05
-5.082e-07
2.25995e-07
1.55195e-05
-1.52373e-05
-6.29632e-06
4.26935e-06
2.02697e-06
-3.02048e-06
3.98279e-06
-4.58624e-06
3.62393e-06
-5.33179e-06
7.44671e-06
-3.78772e-06
1.67281e-06
-1.01185e-05
1.25044e-05
1.96823e-08
-2.40562e-06
-1.22219e-05
8.97433e-06
8.59208e-06
-5.3445e-06
-5.04623e-06
1.55586e-06
-8.69434e-07
4.35979e-06
1.1987e-06
-2.81905e-06
-3.04997e-06
4.67032e-06
3.52943e-06
-3.92379e-06
-4.13109e-06
4.52545e-06
4.25376e-06
-4.55643e-06
-5.15329e-06
5.45596e-06
4.82944e-06
-5.06852e-06
-5.24053e-06
5.47962e-06
5.27156e-06
-5.44001e-06
-4.49175e-06
4.6602e-06
5.58047e-06
-5.69296e-06
-3.43329e-06
3.54578e-06
5.7785e-06
-5.83279e-06
-2.47516e-06
2.52945e-06
5.8503e-06
-5.8223e-06
-1.82064e-06
1.79265e-06
5.73774e-06
-5.59035e-06
-1.4852e-06
1.33782e-06
5.37705e-06
-5.10003e-06
-1.31465e-06
1.03763e-06
4.77797e-06
-4.44389e-06
-8.83562e-07
5.49489e-07
4.13493e-06
-3.85666e-06
7.49546e-08
-3.53224e-07
3.55519e-06
-3.12138e-06
9.15259e-07
-1.34907e-06
2.45824e-06
-1.56573e-06
2.01006e-06
-2.90257e-06
6.41148e-07
2.70361e-08
6.5414e-06
-7.20958e-06
-3.21033e-07
3.03479e-07
1.27212e-05
-1.27037e-05
-2.05245e-07
2.83285e-07
1.51612e-05
-1.52393e-05
-2.38829e-06
-1.7235e-07
2.56064e-06
-4.75643e-06
7.52808e-06
-1.9087e-06
-8.62953e-07
-9.84316e-06
1.16621e-05
1.26673e-06
-3.08569e-06
-1.03406e-05
4.50391e-06
1.91931e-06
3.91735e-06
9.48595e-07
-2.33841e-06
9.09111e-08
1.29891e-06
2.29192e-06
-2.21388e-06
-5.54454e-06
5.4665e-06
2.15061e-06
-2.70684e-06
-5.75022e-06
6.30646e-06
3.43987e-06
-3.99335e-06
-4.89892e-06
5.45239e-06
4.39178e-06
-4.71416e-06
-5.73651e-06
6.05889e-06
4.9958e-06
-5.23994e-06
-5.71981e-06
5.96395e-06
5.44333e-06
-5.60505e-06
-4.82679e-06
4.9885e-06
5.72998e-06
-5.82166e-06
-3.64988e-06
3.74156e-06
5.88026e-06
-5.90841e-06
-2.57531e-06
2.60346e-06
5.90644e-06
-5.86407e-06
-1.76346e-06
1.72109e-06
5.77455e-06
-5.63578e-06
-1.19589e-06
1.05712e-06
5.44706e-06
-5.20886e-06
-7.77716e-07
5.39517e-07
4.93281e-06
-4.64743e-06
-2.38602e-07
-4.67762e-08
4.37215e-06
-4.10643e-06
6.30079e-07
-8.95791e-07
3.822e-06
-3.46668e-06
1.7494e-06
-2.10472e-06
2.98897e-06
-2.38092e-06
3.64698e-06
-4.25504e-06
1.72245e-06
-1.13936e-06
7.82122e-06
-8.40432e-06
6.7268e-07
-3.10168e-07
1.28925e-05
-1.3255e-05
9.32285e-09
2.06259e-07
1.5411e-05
-1.56265e-05
5.21857e-07
5.83747e-06
-6.35932e-06
8.15152e-06
-1.77874e-05
9.63592e-06
2.13617e-05
-2.45542e-05
3.19247e-06
3.19466e-05
-4.14304e-05
9.4838e-06
4.53353e-05
-4.09709e-05
-4.36434e-06
3.41813e-05
-2.05377e-05
-1.36436e-05
3.31439e-06
6.75066e-06
-1.0065e-05
-1.03766e-05
1.01393e-05
2.37307e-07
-7.10496e-06
1.59174e-06
5.51323e-06
3.82636e-06
-8.12286e-06
4.29649e-06
5.75724e-06
6.01272e-06
-1.177e-05
-8.09984e-06
-7.1145e-06
1.52143e-05
3.10113e-05
-5.19829e-05
2.09716e-05
6.40815e-05
-6.81442e-05
4.06276e-06
6.77156e-05
-6.55246e-05
-2.19106e-06
6.26493e-05
-5.90036e-05
-3.64574e-06
5.42388e-05
-4.75933e-05
-6.64551e-06
3.71516e-05
-2.13097e-05
-1.58419e-05
3.72118e-06
4.45596e-06
-8.17714e-06
-1.25775e-05
1.66665e-05
-4.08901e-06
2.1785e-05
-4.99422e-05
-2.61981e-05
5.43553e-05
5.4171e-05
-5.18272e-05
-5.77428e-06
3.4304e-06
4.79936e-05
-3.62706e-05
-7.61188e-06
-4.11115e-06
2.95671e-05
-2.79336e-05
1.47835e-05
-1.6417e-05
9.90213e-06
9.27842e-06
2.91998e-05
-4.83803e-05
-1.77225e-05
2.12725e-05
1.73922e-05
-2.09422e-05
-2.26596e-05
2.25604e-05
-6.17174e-07
7.16324e-07
-2.19226e-05
2.09633e-05
-8.00698e-06
8.96629e-06
-1.74832e-05
9.89343e-06
-1.03228e-05
1.79126e-05
-1.9467e-06
-1.71706e-05
8.20709e-06
1.09102e-05
4.73464e-05
-7.04788e-05
-4.26318e-05
6.57642e-05
8.02575e-05
-8.0952e-05
-3.06436e-05
3.1338e-05
7.88331e-05
-7.65368e-05
-2.263e-06
-3.33162e-08
7.52231e-05
-7.47237e-05
4.45348e-06
-4.95286e-06
7.44244e-05
-7.36231e-05
6.43684e-06
-7.2381e-06
7.15247e-05
-6.74556e-05
1.20589e-05
-1.61279e-05
6.08778e-05
-4.85433e-05
2.97534e-05
-4.20879e-05
2.95567e-05
-7.5206e-06
2.55221e-05
-4.75582e-05
-1.83387e-05
1.58837e-05
2.45495e-06
-6.26405e-06
1.41476e-05
-7.4795e-05
6.69114e-05
6.28636e-06
-9.32989e-06
-3.68988e-06
6.73341e-06
-2.02535e-06
1.00454e-05
1.53296e-05
-2.33496e-05
-1.80527e-05
3.17136e-05
2.07556e-05
-3.44165e-05
-3.20643e-05
2.76192e-05
6.12847e-05
-5.68396e-05
-2.64788e-05
2.55141e-05
2.13319e-05
-2.03673e-05
-2.4069e-05
2.28576e-05
-1.00106e-06
2.21245e-06
-2.36886e-05
2.59321e-05
-8.41446e-06
6.17091e-06
-2.24025e-05
1.04701e-05
-2.69296e-05
3.8862e-05
1.19654e-05
-4.47524e-05
-4.03897e-05
7.31768e-05
6.88253e-05
-7.45816e-05
-7.9822e-05
8.55782e-05
7.16867e-05
-7.68448e-05
-2.54569e-05
3.0615e-05
8.7536e-05
-9.69257e-05
-3.02958e-08
9.42004e-06
0.000107255
-0.000119589
-1.8039e-06
1.41383e-05
0.000128135
-0.000127128
5.7758e-06
-6.78314e-06
0.000115515
-0.000105213
1.98703e-05
-3.01732e-05
9.36923e-05
-7.33758e-05
5.51273e-05
-7.54439e-05
4.84993e-05
-2.14963e-05
7.09959e-05
-9.7999e-05
-1.05911e-05
6.26223e-06
4.32884e-06
-8.64647e-06
1.65722e-05
-5.47479e-05
4.68222e-05
-2.46676e-05
2.8069e-05
-7.30117e-06
3.89973e-06
-3.17339e-05
3.28233e-05
2.85337e-05
-2.96231e-05
-3.80447e-05
3.95837e-05
4.17851e-05
-4.33241e-05
-3.8235e-05
3.48255e-05
5.19623e-05
-4.85527e-05
-3.28411e-05
3.04133e-05
1.86588e-05
-1.62311e-05
-2.60215e-05
2.27655e-05
-4.4428e-06
7.6988e-06
-2.6843e-05
2.9937e-05
-2.5237e-06
-5.70318e-07
-2.09525e-05
2.90649e-06
-5.43942e-05
7.24402e-05
2.5709e-05
-5.14219e-05
-0.000104006
0.000129719
5.58738e-05
-5.39081e-05
-8.46198e-05
8.26541e-05
5.34857e-05
-5.25935e-05
-3.47413e-05
3.38492e-05
5.90495e-05
-6.75364e-05
-1.50137e-05
2.35006e-05
7.16832e-05
-6.60772e-05
-2.64727e-05
2.08667e-05
4.15587e-05
-1.22185e-05
1.22266e-05
-4.15668e-05
2.44668e-06
-9.75417e-06
3.73157e-05
-3.00082e-05
2.65408e-05
-5.00401e-05
8.15265e-05
-5.80272e-05
4.22324e-05
-2.18348e-05
0.000125695
-0.000146092
-3.93096e-06
1.8774e-06
2.05356e-06
-7.08326e-06
1.65699e-05
-4.16707e-05
3.21841e-05
-2.68622e-05
3.12669e-05
3.0772e-06
-7.48193e-06
-3.30528e-05
3.63208e-05
3.22331e-05
-3.55011e-05
-3.88473e-05
4.04497e-05
4.48102e-05
-4.64127e-05
-4.11785e-05
4.14813e-05
4.70038e-05
-4.73066e-05
-4.13336e-05
3.74941e-05
1.30557e-05
-9.21626e-06
-2.69578e-05
2.0341e-05
-1.21892e-05
1.88059e-05
-2.15532e-05
1.37208e-05
-2.96825e-07
8.12926e-06
1.16492e-07
-1.97706e-05
-9.21708e-05
0.000111825
3.96598e-05
-4.40574e-05
-0.000146466
0.000150863
3.98817e-05
-4.69084e-05
-8.40059e-05
9.10326e-05
4.97612e-05
-5.08412e-05
-3.26491e-05
3.3729e-05
4.75863e-05
-3.35084e-05
-2.53775e-05
1.12996e-05
8.68031e-07
3.5611e-05
1.17597e-05
-4.82388e-05
-5.41125e-05
6.38251e-05
6.35108e-05
-7.32234e-05
-6.87367e-05
6.97742e-05
3.46255e-05
-3.56631e-05
-7.1397e-05
5.19963e-05
9.30643e-06
1.00943e-05
-4.70858e-06
-8.35454e-06
0.000153695
-0.000140632
-5.55348e-08
2.06624e-06
-2.0107e-06
1.78417e-05
-7.92679e-06
-1.58411e-05
5.9262e-06
-1.43238e-05
2.81232e-05
1.2645e-05
-2.64444e-05
-3.35432e-05
3.68564e-05
3.90543e-05
-4.23675e-05
-3.95168e-05
4.19001e-05
4.84732e-05
-5.08565e-05
-4.32304e-05
4.29369e-05
4.86308e-05
-4.83372e-05
-4.203e-05
3.63715e-05
5.18923e-06
4.6931e-07
-2.08931e-05
7.23167e-06
-2.90311e-05
4.26925e-05
8.06629e-06
-2.59324e-05
-2.08348e-05
3.87009e-05
3.93664e-05
-4.89367e-05
-0.000127894
0.000137464
4.99196e-05
-4.41716e-05
-0.00014597
0.000140222
5.64961e-05
-5.75224e-05
-9.87855e-05
9.98118e-05
4.02674e-05
-9.63462e-06
-2.59056e-05
-4.72717e-06
-2.19511e-05
3.8459e-05
2.14427e-05
-3.79506e-05
-4.86356e-05
5.7181e-05
6.1499e-05
-7.00444e-05
-6.51697e-05
7.22337e-05
8.12103e-05
-8.82743e-05
-7.41841e-05
7.36483e-05
3.64052e-05
-3.58694e-05
-7.39667e-05
7.29207e-05
-1.15313e-05
1.25774e-05
-3.72195e-05
7.98373e-06
0.000113379
-8.41437e-05
-4.48273e-06
9.74312e-06
-5.26038e-06
-2.05806e-05
2.94819e-05
2.09908e-06
-1.10003e-05
-2.95174e-05
3.19643e-05
3.45736e-05
-3.70205e-05
-3.505e-05
3.84027e-05
4.54052e-05
-4.8758e-05
-4.01684e-05
3.83656e-05
5.23023e-05
-5.04995e-05
-3.20086e-05
2.27566e-05
4.38317e-05
-3.45797e-05
-2.29505e-05
1.72061e-06
-1.6916e-05
3.81459e-05
1.22502e-05
-2.54661e-05
-5.90542e-05
7.227e-05
4.79255e-05
-6.29498e-05
-5.7547e-05
7.25713e-05
6.5959e-05
-6.32701e-05
-0.000139055
0.000136366
6.8082e-05
-9.48907e-05
-0.000148315
0.000175123
6.99955e-05
-5.29051e-06
-7.25487e-05
7.84373e-06
-2.61783e-05
3.63375e-05
3.41161e-05
-4.42753e-05
-4.29594e-05
4.96134e-05
4.61038e-05
-5.27578e-05
-5.3086e-05
4.4306e-05
7.3689e-05
-6.4909e-05
-4.15749e-05
7.27765e-05
9.97866e-05
-0.000130988
-0.000112304
0.000132274
3.56303e-05
-5.56006e-05
-9.04365e-05
4.71004e-05
-2.08136e-05
6.41497e-05
-1.09432e-05
6.52394e-07
6.30618e-05
-5.2771e-05
-1.26491e-05
-5.04103e-06
1.76902e-05
-1.95395e-05
2.73289e-05
2.04891e-05
-2.82785e-05
-3.13383e-05
3.43924e-05
4.05615e-05
-4.36156e-05
-3.65277e-05
3.51606e-05
5.07764e-05
-4.94093e-05
-2.84659e-05
1.57914e-05
4.39701e-05
-3.12956e-05
8.51618e-07
-9.17476e-06
2.3734e-05
-1.54109e-05
1.37994e-05
-2.71013e-05
-5.44285e-05
6.77304e-05
3.5393e-05
-4.82071e-05
-8.4986e-05
9.78001e-05
6.46533e-05
-7.02911e-05
-8.1925e-05
8.75628e-05
7.45149e-05
-8.53833e-05
-0.000139673
0.000150542
9.00993e-05
-4.12497e-05
-0.000164445
0.000115595
-1.26687e-05
3.04382e-05
2.95798e-05
-4.73493e-05
-3.78087e-05
4.42198e-05
5.04367e-05
-5.68478e-05
-4.9638e-05
4.53312e-05
5.74308e-05
-5.31241e-05
-5.97842e-06
-1.86278e-05
3.54539e-05
-1.08477e-05
-3.69507e-06
2.05279e-05
0.000159121
-0.000175954
-3.89101e-05
5.38304e-05
8.2185e-05
-9.71053e-05
-2.88745e-05
-5.73576e-06
-0.000125882
0.000160492
1.79407e-06
-4.39288e-06
4.80346e-05
-4.54358e-05
-5.807e-06
3.32973e-05
-2.74903e-05
2.02578e-05
-3.3064e-05
1.08243e-06
1.17238e-05
3.57241e-05
-3.36547e-05
2.29536e-07
-2.29895e-06
3.27197e-05
-3.41003e-05
-6.47694e-06
7.85752e-06
3.34067e-05
-2.69051e-05
1.10939e-07
-6.61256e-06
1.68747e-05
-1.03988e-05
-4.81578e-06
-1.66015e-06
6.30627e-06
-4.50484e-06
-6.44522e-06
4.64379e-06
3.92914e-06
-4.0356e-06
-6.29398e-06
6.40045e-06
4.81109e-06
-6.16376e-06
-6.69195e-06
8.04462e-06
7.80472e-06
-9.32486e-06
-6.33471e-06
7.85486e-06
1.05814e-05
-1.15615e-05
-5.19146e-06
6.1716e-06
1.23578e-05
-1.29626e-05
-3.82295e-06
4.42779e-06
1.33661e-05
-1.3587e-05
-2.58682e-06
2.80765e-06
1.36249e-05
-1.34283e-05
-1.63242e-06
1.4358e-06
1.30116e-05
-1.24573e-05
-8.94126e-07
3.3976e-07
1.18574e-05
-1.1245e-05
-3.15816e-07
-2.96567e-07
1.06456e-05
-1.01207e-05
2.99798e-07
-8.24688e-07
9.68428e-06
-9.29493e-06
1.13544e-06
-1.52479e-06
8.90932e-06
-8.49226e-06
2.40596e-06
-2.82301e-06
7.97583e-06
-7.28471e-06
4.74865e-06
-5.43976e-06
6.39693e-06
-5.31748e-06
8.96244e-06
-1.00419e-05
3.98958e-06
-2.28787e-06
1.37972e-05
-1.54989e-05
8.28034e-08
2.16891e-06
1.59607e-05
-1.82124e-05
-5.81446e-05
7.59114e-05
-1.77668e-05
3.88622e-05
-5.51355e-05
-2.29287e-05
3.9202e-05
6.81037e-05
-7.57308e-05
-7.11943e-06
1.47466e-05
7.50175e-05
-6.78719e-05
-8.49322e-06
1.34768e-06
6.36112e-05
-6.95298e-05
1.48225e-05
-8.90386e-06
7.75921e-05
-8.15554e-05
1.96174e-05
-1.56541e-05
7.71757e-05
-6.55235e-05
2.10506e-06
-1.37573e-05
5.31625e-05
-4.02671e-05
-2.88168e-06
-1.00137e-05
3.04321e-05
-2.36192e-05
-6.83538e-06
2.24622e-08
1.90375e-05
-1.58823e-05
-7.87494e-06
4.71969e-06
1.38157e-05
-1.23522e-05
-6.76026e-06
5.29668e-06
1.13846e-05
-1.09471e-05
-5.38619e-06
4.94867e-06
1.08651e-05
-1.10367e-05
-3.61517e-06
3.78681e-06
1.13727e-05
-1.18538e-05
-1.65251e-06
2.13357e-06
1.24324e-05
-1.28715e-05
-2.1538e-07
6.54403e-07
1.3035e-05
-1.29431e-05
8.84833e-07
-9.76743e-07
1.2669e-05
-1.23734e-05
1.53004e-06
-1.82563e-06
1.20932e-05
-1.182e-05
1.93947e-06
-2.21267e-06
1.16089e-05
-1.16427e-05
2.97161e-06
-2.93779e-06
1.19696e-05
-1.23125e-05
5.58119e-06
-5.23831e-06
1.23433e-05
-1.18156e-05
1.08822e-05
-1.14099e-05
1.02857e-05
-7.13716e-06
1.7983e-05
-2.11315e-05
2.00246e-06
4.7169e-06
2.29527e-05
-2.96721e-05
-8.73614e-05
9.27598e-05
-5.39836e-06
1.69679e-05
-2.40809e-05
-5.35289e-05
6.06418e-05
3.51603e-05
-4.18126e-05
-1.91758e-05
2.58281e-05
4.34021e-05
-3.98033e-05
7.18427e-06
-1.07831e-05
3.40981e-05
-2.94235e-05
8.76337e-06
-1.34379e-05
2.73936e-05
-3.05532e-05
3.12627e-06
3.32946e-08
3.91391e-05
-5.07621e-05
4.46414e-06
7.1589e-06
6.34236e-05
-7.67469e-05
1.23853e-05
9.37965e-07
9.0081e-05
-9.77621e-05
9.75742e-06
-2.07634e-06
0.000101764
-9.75585e-05
4.76776e-06
-8.9736e-06
8.51456e-05
-7.1744e-05
1.27064e-06
-1.46722e-05
5.55337e-05
-4.30126e-05
-8.40199e-07
-1.16809e-05
3.55722e-05
-2.97396e-05
-1.94487e-06
-3.88777e-06
2.43112e-05
-1.95565e-05
-1.36379e-06
-3.39084e-06
1.59805e-05
-1.31122e-05
-7.07951e-07
-2.16039e-06
1.0774e-05
-9.24582e-06
6.21192e-07
-2.14942e-06
8.58273e-06
-8.60146e-06
1.68373e-06
-1.665e-06
9.18557e-06
-9.97126e-06
1.86021e-06
-1.07452e-06
1.11071e-05
-1.28034e-05
2.22825e-06
-5.32014e-07
1.49988e-05
-1.7153e-05
4.34433e-06
-2.19007e-06
1.94076e-05
-2.18043e-05
1.12938e-05
-8.89718e-06
2.37869e-05
-2.30759e-05
2.3917e-05
-2.4628e-05
1.38001e-05
7.61085e-06
4.05939e-05
-6.20049e-05
-8.89876e-05
7.58449e-05
1.31427e-05
-5.88645e-07
5.81774e-06
-5.9202e-05
5.39729e-05
-9.6519e-06
6.30849e-06
-3.18488e-05
3.51922e-05
-8.68489e-07
-5.10627e-06
9.19138e-06
-3.21662e-06
1.13364e-05
-1.69869e-05
1.24007e-05
-6.75033e-06
2.09138e-05
-2.33545e-05
-1.99154e-06
4.4323e-06
2.51947e-05
-2.74666e-05
-9.1777e-06
1.14496e-05
3.14737e-05
-3.63754e-05
-8.702e-06
1.36037e-05
3.96447e-05
-4.21864e-05
-1.21105e-05
1.46521e-05
4.71948e-05
-5.67991e-05
-4.48219e-06
1.40866e-05
7.14158e-05
-8.77451e-05
5.67882e-06
1.06505e-05
0.000103764
-0.000116567
1.25672e-05
2.34951e-07
0.000128583
-0.000140154
2.26927e-05
-1.11212e-05
0.000148722
-0.000154885
2.09606e-05
-1.47979e-05
0.000156914
-0.00015597
7.81814e-06
-8.76166e-06
0.000152479
-0.000144738
5.71028e-06
-1.34517e-05
0.000130177
-0.000110324
7.32788e-06
-2.71808e-05
8.90556e-05
-7.23751e-05
4.16994e-06
-2.08505e-05
6.10179e-05
-5.33892e-05
-6.45698e-08
-7.56413e-06
4.82794e-05
-4.3648e-05
-7.66065e-07
-3.86538e-06
4.38151e-05
-4.86448e-05
2.59449e-06
2.23524e-06
5.43094e-05
-5.14034e-05
2.50399e-05
-2.79459e-05
3.51819e-05
-3.21195e-05
0.000100991
-0.000104053
-6.04341e-05
4.98092e-05
1.0625e-05
-1.46113e-05
1.26592e-05
-5.10696e-05
5.30217e-05
-1.53911e-05
1.64373e-05
-3.52223e-05
3.41761e-05
-1.30373e-05
5.64159e-06
-4.61458e-06
1.20103e-05
3.33412e-06
-1.09941e-05
-1.45488e-06
9.11485e-06
1.65362e-05
-2.07726e-05
-7.97904e-06
1.22154e-05
2.38235e-05
-2.56805e-05
-1.29033e-05
1.47604e-05
2.68833e-05
-2.84672e-05
-1.69786e-05
1.85625e-05
3.095e-05
-3.37955e-05
-1.6765e-05
1.96104e-05
3.60381e-05
-3.69343e-05
-1.53551e-05
1.62512e-05
3.68132e-05
-3.72368e-05
-1.3331e-05
1.37547e-05
3.87402e-05
-4.03523e-05
-9.92382e-06
1.1536e-05
4.2128e-05
-4.4687e-05
-2.03292e-06
4.59185e-06
4.87646e-05
-5.45098e-05
5.73421e-06
1.10303e-08
6.04751e-05
-6.56243e-05
6.20763e-06
-1.05836e-06
7.01135e-05
-7.56941e-05
1.04409e-05
-4.86034e-06
8.42939e-05
-9.56244e-05
2.10711e-05
-9.74065e-06
0.000107393
-0.000118802
2.75088e-05
-1.61006e-05
0.000129276
-0.000127322
2.05048e-05
-2.24586e-05
0.000112314
-9.22693e-05
1.93808e-05
-3.94254e-05
7.44386e-05
-6.92699e-05
-5.60189e-06
4.33156e-07
7.82606e-05
-7.29827e-05
2.84588e-05
-3.37366e-05
7.34463e-05
-8.20877e-05
9.91828e-05
-9.05414e-05
-4.55496e-05
4.5196e-05
3.5362e-07
-1.10626e-05
1.29923e-05
-5.42933e-05
5.23636e-05
-1.22847e-05
1.08411e-05
-3.42204e-05
3.5664e-05
-7.55222e-06
1.87949e-06
-1.81113e-05
2.3784e-05
4.50167e-06
-9.88848e-06
-1.55391e-05
2.09259e-05
1.44364e-05
-1.84153e-05
-1.63969e-05
2.03758e-05
2.19185e-05
-2.49588e-05
-1.74178e-05
2.04581e-05
2.73984e-05
-2.91097e-05
-1.97436e-05
2.14549e-05
3.03078e-05
-3.15732e-05
-2.14975e-05
2.27628e-05
3.33658e-05
-3.55964e-05
-1.83422e-05
2.05728e-05
3.79123e-05
-4.02214e-05
-1.53564e-05
1.76655e-05
4.24878e-05
-4.46076e-05
-1.26287e-05
1.47485e-05
4.69932e-05
-5.0389e-05
-8.04097e-06
1.14368e-05
5.48575e-05
-5.98039e-05
-4.05222e-06
8.99855e-06
6.49081e-05
-7.03194e-05
-2.78759e-06
8.19888e-06
7.6263e-05
-8.28724e-05
-2.59356e-07
6.86879e-06
8.99549e-05
-9.75395e-05
5.9187e-07
6.99276e-06
0.000105538
-0.000113524
3.76672e-07
7.6094e-06
0.000120146
-0.000126918
5.86212e-06
9.1018e-07
0.00013843
-0.000151548
2.36523e-05
-1.05336e-05
0.000159217
-0.000150494
1.72973e-05
-2.60207e-05
0.000118175
-0.000101496
7.40253e-05
-9.07038e-05
0.000105825
-0.000143118
7.01847e-05
-3.2892e-05
-4.6448e-05
4.78649e-05
-1.41686e-06
-3.87368e-06
7.42027e-06
-4.85031e-05
4.49565e-05
-7.67668e-06
5.45829e-06
-3.78437e-05
4.0062e-05
-1.5416e-06
-3.03327e-06
-2.91693e-05
3.37442e-05
7.39008e-06
-1.14513e-05
-2.55665e-05
2.96278e-05
1.52776e-05
-1.88355e-05
-2.41503e-05
2.77082e-05
2.21378e-05
-2.52392e-05
-2.35911e-05
2.66925e-05
2.8115e-05
-3.06127e-05
-2.36805e-05
2.61782e-05
3.26369e-05
-3.43715e-05
-2.41327e-05
2.58673e-05
3.61402e-05
-3.80838e-05
-2.25996e-05
2.45432e-05
4.01918e-05
-4.24985e-05
-2.006e-05
2.23668e-05
4.5007e-05
-4.76527e-05
-1.73515e-05
1.99972e-05
5.04799e-05
-5.36295e-05
-1.47339e-05
1.78835e-05
5.712e-05
-6.08339e-05
-1.29664e-05
1.66804e-05
6.47304e-05
-6.89327e-05
-1.27716e-05
1.69739e-05
7.36627e-05
-7.93016e-05
-1.36238e-05
1.92627e-05
8.63656e-05
-9.5034e-05
-1.66522e-05
2.53207e-05
0.00010414
-0.000110947
-1.63832e-05
2.31897e-05
0.000113724
-0.000114929
-5.79765e-07
1.78405e-06
0.000117236
-0.00012148
6.75395e-06
-2.51008e-06
0.000124945
-0.000122467
3.40583e-05
-3.65358e-05
0.000117786
-0.000126199
8.49624e-05
-7.65492e-05
0.00014512
-0.000208116
-1.86115e-05
8.1608e-05
-4.92233e-05
5.06556e-05
-1.43228e-06
7.02259e-07
-3.52089e-07
-4.29965e-05
4.26463e-05
1.12794e-06
-2.83204e-06
-4.20041e-05
4.37082e-05
5.15479e-06
-7.8722e-06
-3.72439e-05
3.99613e-05
1.08914e-05
-1.40654e-05
-3.31975e-05
3.63714e-05
1.72533e-05
-2.0378e-05
-3.10411e-05
3.41658e-05
2.34076e-05
-2.633e-05
-2.97095e-05
3.26319e-05
2.9126e-05
-3.17586e-05
-2.87813e-05
3.14139e-05
3.42003e-05
-3.64735e-05
-2.79283e-05
3.02016e-05
3.86409e-05
-4.07692e-05
-2.6549e-05
2.86773e-05
4.29199e-05
-4.51417e-05
-2.46053e-05
2.68271e-05
4.7454e-05
-4.98559e-05
-2.25299e-05
2.49318e-05
5.23612e-05
-5.4995e-05
-2.07676e-05
2.34014e-05
5.77649e-05
-6.06632e-05
-2.00002e-05
2.28985e-05
6.36905e-05
-6.6888e-05
-2.08213e-05
2.40189e-05
7.03749e-05
-7.43383e-05
-2.41622e-05
2.81256e-05
7.88972e-05
-8.38982e-05
-3.21156e-05
3.71167e-05
8.88917e-05
-9.3609e-05
-2.83364e-05
3.30536e-05
9.90144e-05
-0.0001072
-5.80936e-06
1.39947e-05
0.000118292
-0.000128671
-4.8483e-06
1.52278e-05
0.000135471
-0.000139841
3.42991e-05
-2.99289e-05
0.000149217
-0.000159657
6.71929e-05
-5.67524e-05
0.000175482
-0.000187481
-0.000127838
0.000139837
-5.22976e-05
5.42107e-05
-1.91302e-06
2.76199e-06
-4.02298e-06
-4.33507e-05
4.46116e-05
5.55653e-06
-7.22414e-06
-4.53244e-05
4.6992e-05
9.11697e-06
-1.13539e-05
-4.23107e-05
4.45476e-05
1.38887e-05
-1.65989e-05
-3.92622e-05
4.19724e-05
1.93979e-05
-2.22277e-05
-3.712e-05
3.99498e-05
2.50473e-05
-2.78264e-05
-3.54719e-05
3.8251e-05
3.0543e-05
-3.31814e-05
-3.40504e-05
3.66888e-05
3.57322e-05
-3.81948e-05
-3.25947e-05
3.50573e-05
4.05772e-05
-4.28919e-05
-3.09166e-05
3.32312e-05
4.51501e-05
-4.73606e-05
-2.90465e-05
3.12569e-05
4.95305e-05
-5.16667e-05
-2.71956e-05
2.93319e-05
5.3778e-05
-5.58665e-05
-2.57589e-05
2.78475e-05
5.79171e-05
-5.9902e-05
-2.53557e-05
2.73405e-05
6.18186e-05
-6.37466e-05
-2.65757e-05
2.85036e-05
6.58445e-05
-6.82261e-05
-3.12172e-05
3.35988e-05
7.08396e-05
-7.3706e-05
-4.07812e-05
4.36476e-05
7.76426e-05
-8.45831e-05
-3.9266e-05
4.62065e-05
9.62649e-05
-0.000112301
-2.55582e-05
4.15942e-05
0.000130207
-0.000144475
-2.71731e-05
4.14412e-05
0.000149801
-0.000152588
2.49652e-05
-2.21779e-05
0.000164124
-0.000174518
4.54101e-05
-3.50161e-05
0.000176474
-0.000148327
-0.000123164
9.50165e-05
-5.63964e-05
5.8831e-05
-2.43454e-06
3.99287e-06
-5.72387e-06
-4.61618e-05
4.78928e-05
7.54041e-06
-9.44478e-06
-4.87738e-05
5.06782e-05
1.15066e-05
-1.37544e-05
-4.67736e-05
4.90214e-05
1.61785e-05
-1.87342e-05
-4.45788e-05
4.71345e-05
2.13826e-05
-2.40867e-05
-4.26985e-05
4.54025e-05
2.68166e-05
-2.95469e-05
-4.09939e-05
4.37241e-05
3.22558e-05
-3.4926e-05
-3.93368e-05
4.20071e-05
3.75445e-05
-4.01015e-05
-3.75684e-05
4.01254e-05
4.25869e-05
-4.49886e-05
-3.55935e-05
3.79952e-05
4.72922e-05
-4.9483e-05
-3.34546e-05
3.56454e-05
5.15484e-05
-5.34727e-05
-3.13549e-05
3.32792e-05
5.52335e-05
-5.67971e-05
-2.96695e-05
3.12331e-05
5.81232e-05
-5.9196e-05
-2.88585e-05
2.99313e-05
6.00504e-05
-6.07596e-05
-2.9848e-05
3.05571e-05
6.13859e-05
-6.19728e-05
-3.52152e-05
3.58021e-05
6.26571e-05
-6.39351e-05
-4.57779e-05
4.70559e-05
6.69967e-05
-7.37246e-05
-5.31891e-05
5.9917e-05
8.58983e-05
-0.000103828
-6.00081e-05
7.79381e-05
0.000124907
-0.000143145
-5.74321e-05
7.56698e-05
0.0001529
-0.000160488
1.76033e-05
-1.00152e-05
0.000170922
-0.000182594
2.44687e-05
-1.27967e-05
0.000186549
-0.000164321
-6.65439e-05
4.43153e-05
-6.14849e-05
6.43314e-05
-2.8465e-06
4.85107e-06
-6.82472e-06
-4.97596e-05
5.17332e-05
8.8422e-06
-1.09462e-05
-5.26904e-05
5.47943e-05
1.31559e-05
-1.54828e-05
-5.13047e-05
5.36316e-05
1.79308e-05
-2.04821e-05
-4.9676e-05
5.22272e-05
2.31176e-05
-2.58165e-05
-4.80919e-05
5.07908e-05
2.85596e-05
-3.13281e-05
-4.64634e-05
4.92319e-05
3.41032e-05
-3.68665e-05
-4.47152e-05
4.74785e-05
3.95995e-05
-4.22836e-05
-4.27374e-05
4.54216e-05
4.48976e-05
-4.74168e-05
-4.04448e-05
4.29641e-05
4.98124e-05
-5.20507e-05
-3.78465e-05
4.00847e-05
5.40929e-05
-5.58914e-05
-3.51246e-05
3.69232e-05
5.73907e-05
-5.85276e-05
-3.25613e-05
3.36982e-05
5.92338e-05
-5.94314e-05
-3.05743e-05
3.07719e-05
5.90264e-05
-5.79465e-05
-3.04538e-05
2.93739e-05
5.62645e-05
-5.43762e-05
-3.50834e-05
3.3195e-05
5.30512e-05
-5.32766e-05
-4.75404e-05
4.77659e-05
5.62172e-05
-6.26632e-05
-6.64521e-05
7.28981e-05
7.26011e-05
-8.53791e-05
-9.32836e-05
0.000106062
0.000101732
-0.000123336
-9.57194e-05
0.000117323
0.000146673
-0.000160689
-1.06313e-06
1.50793e-05
0.000170875
-0.000183581
1.36078e-07
1.25702e-05
0.000198893
-0.000208699
-3.49844e-05
4.47907e-05
-6.73452e-05
7.0501e-05
-3.15578e-06
5.46034e-06
-7.57861e-06
-5.37893e-05
5.59075e-05
9.73568e-06
-1.19832e-05
-5.6976e-05
5.92236e-05
1.43143e-05
-1.67384e-05
-5.60065e-05
5.84306e-05
1.92612e-05
-2.18762e-05
-5.48049e-05
5.74199e-05
2.45747e-05
-2.73463e-05
-5.35185e-05
5.62901e-05
3.01796e-05
-3.30612e-05
-5.20483e-05
5.493e-05
3.59762e-05
-3.89071e-05
-5.03157e-05
5.32466e-05
4.18343e-05
-4.47343e-05
-4.82004e-05
5.11004e-05
4.75789e-05
-5.03336e-05
-4.55826e-05
4.83373e-05
5.29556e-05
-5.53927e-05
-4.23978e-05
4.48349e-05
5.75845e-05
-5.94581e-05
-3.87253e-05
4.05988e-05
6.09218e-05
-6.18487e-05
-3.47e-05
3.56268e-05
6.20801e-05
-6.15082e-05
-3.05151e-05
2.99433e-05
6.02193e-05
-5.8536e-05
-2.75739e-05
2.58906e-05
5.68869e-05