/*--------------------------------*- C++ -*----------------------------------*\
| =========                 |                                                 |
| \\      /  F ield         | OpenFOAM: The Open Source CFD Toolbox           |
|  \\    /   O peration     | Version:  v1912                                 |
|   \\  /    A nd           | Website:  www.openfoam.com                      |
|    \\/     M anipulation  |                                                 |
\*---------------------------------------------------------------------------*/
FoamFile
{
    version     2.0;
    format      ascii;
    class       volVectorField;
    location    "0.7";
    object      U;
}
// * * * * * * * * * * * * * * * * * * * * * * * * * * * * * * * * * * * * * //

dimensions      [0 1 -1 0 0 0 0];


internalField   nonuniform List<vector> 
9072
(
(-0.0203895 0.0175121 0)
(-0.0615938 0.00530954 0)
(-0.0763729 0.00169425 0)
(-0.0933275 0.00153931 0)
(-0.0838921 -0.00364126 0)
(-0.0374728 -0.00476732 0)
(-0.0108591 -0.000425103 0)
(-0.0196562 0.00365226 0)
(-0.0506278 0.00464206 0)
(-0.0829102 0.00351229 0)
(-0.108588 0.00248752 0)
(-0.128825 0.00209241 0)
(-0.145973 0.00209354 0)
(-0.163698 0.00277482 0)
(-0.191453 0.00326005 0)
(-0.216959 -0.0057957 0)
(-0.245612 0.0118668 0)
(-0.337759 0.00263165 0)
(-0.182208 -0.0322582 0)
(-0.0593697 -0.0178648 0)
(-0.335201 0.0535827 0)
(-0.415643 -0.016709 0)
(-0.142226 -0.0337776 0)
(-0.0236069 0.0529749 0)
(-0.061655 0.013 0)
(-0.0705376 0.00797038 0)
(-0.104451 0.00988835 0)
(-0.108345 -0.0187941 0)
(-0.049316 -0.0281464 0)
(-0.0137059 -0.00653605 0)
(-0.0140382 0.00931865 0)
(-0.0309286 0.0164929 0)
(-0.0556964 0.0171832 0)
(-0.0826673 0.0147488 0)
(-0.105601 0.0117013 0)
(-0.122607 0.00988131 0)
(-0.135289 0.0122161 0)
(-0.147847 0.0233914 0)
(-0.192483 0.0346178 0)
(-0.296213 0.0447974 0)
(-0.311864 -0.025022 0)
(-0.305101 -0.0749359 0)
(-0.364955 0.0761439 0)
(-0.461381 0.0951855 0)
(-0.30763 -0.102707 0)
(-0.128199 -0.159702 0)
(-0.0176875 0.0810943 0)
(-0.0494427 0.0181058 0)
(-0.0775861 0.0249282 0)
(-0.15563 0.0351966 0)
(-0.17316 -0.0366285 0)
(-0.0833925 -0.0627099 0)
(-0.0316957 -0.0143537 0)
(-0.0311069 0.0144903 0)
(-0.0482137 0.0267381 0)
(-0.0711327 0.0289895 0)
(-0.0935278 0.0256443 0)
(-0.111937 0.0202015 0)
(-0.12549 0.0159725 0)
(-0.134871 0.0159759 0)
(-0.138363 0.0241768 0)
(-0.126605 0.0478617 0)
(-0.108219 0.0659534 0)
(-0.116174 -0.00118316 0)
(-0.207433 -0.0357926 0)
(-0.288064 0.0948353 0)
(-0.214208 0.047794 0)
(-0.097647 -0.16489 0)
(-0.0449149 -0.200441 0)
(-0.00973956 0.100502 0)
(-0.042151 0.0287666 0)
(-0.0962786 0.058518 0)
(-0.16744 0.064226 0)
(-0.151973 -0.0617203 0)
(-0.0953411 -0.109477 0)
(-0.0450081 -0.0213701 0)
(-0.0510147 0.0195542 0)
(-0.0662416 0.0359272 0)
(-0.0850384 0.0389482 0)
(-0.102748 0.0343314 0)
(-0.116856 0.026822 0)
(-0.126897 0.0205719 0)
(-0.133008 0.0186584 0)
(-0.133998 0.0231757 0)
(-0.124166 0.0346808 0)
(-0.0848423 0.041992 0)
(-0.0539371 0.00939644 0)
(-0.07955 0.0102218 0)
(-0.101648 0.0714166 0)
(0.0143875 -0.000148858 0)
(0.0519784 -0.178251 0)
(0.00761775 -0.196185 0)
(0.00236441 0.108929 0)
(-0.0288997 0.0458869 0)
(-0.0572581 0.0804923 0)
(-0.0526039 0.0655744 0)
(0.0115762 -0.0803775 0)
(-0.0031337 -0.111439 0)
(-0.0461907 -0.0206395 0)
(-0.0671729 0.0265696 0)
(-0.0831615 0.0436435 0)
(-0.098179 0.0466892 0)
(-0.111389 0.0408539 0)
(-0.121561 0.031656 0)
(-0.128528 0.0236958 0)
(-0.132007 0.0198202 0)
(-0.13039 0.0211317 0)
(-0.120031 0.0262712 0)
(-0.0978555 0.0255246 0)
(-0.0797358 0.00690466 0)
(-0.0743588 0.00691996 0)
(-0.0101814 0.0422658 0)
(0.0765645 -0.0368532 0)
(0.074361 -0.161716 0)
(0.0128782 -0.177025 0)
(0.018255 0.0956135 0)
(0.0105193 0.0535644 0)
(0.0373191 0.0696525 0)
(0.106812 0.0382167 0)
(0.200802 -0.0988457 0)
(0.111364 -0.0555693 0)
(-0.0440449 0.00234636 0)
(-0.0774512 0.0367105 0)
(-0.0951726 0.0505493 0)
(-0.107992 0.0526693 0)
(-0.118179 0.0456007 0)
(-0.125644 0.0350538 0)
(-0.130478 0.0256845 0)
(-0.132125 0.0199736 0)
(-0.129024 0.018349 0)
(-0.118931 0.018985 0)
(-0.101464 0.0155994 0)
(-0.0860166 0.00342092 0)
(-0.075078 -0.00286075 0)
(-0.0352454 -0.00391753 0)
(0.034677 -0.0591418 0)
(0.0347162 -0.142878 0)
(0.002109 -0.16514 0)
(0.0258222 0.056334 0)
(0.0800095 0.0480754 0)
(0.141568 0.0318314 0)
(0.261807 -0.014875 0)
(0.254279 -0.0824529 0)
(0.0787599 0.0299812 0)
(-0.0544284 0.0418769 0)
(-0.0855087 0.0466953 0)
(-0.100583 0.0572794 0)
(-0.113048 0.0579106 0)
(-0.122341 0.0494737 0)
(-0.128744 0.037665 0)
(-0.132687 0.026949 0)
(-0.133527 0.0194572 0)
(-0.129676 0.0152381 0)
(-0.119943 0.0126913 0)
(-0.105415 0.00769231 0)
(-0.0913036 -0.00232324 0)
(-0.0767429 -0.0122313 0)
(-0.0465157 -0.0267604 0)
(-0.0053544 -0.0747898 0)
(0.00784018 -0.137093 0)
(0.00108374 -0.163959 0)
(0.0272341 0.0121945 0)
(0.13963 0.0151699 0)
(0.248782 -0.0362507 0)
(0.205126 -0.0166317 0)
(-0.0620587 0.0261428 0)
(-0.0483659 0.0654707 0)
(-0.0528056 0.0649587 0)
(-0.0864908 0.0539711 0)
(-0.104091 0.06339 0)
(-0.116932 0.0635376 0)
(-0.126231 0.0535394 0)
(-0.131923 0.0400765 0)
(-0.134733 0.0277801 0)
(-0.134614 0.0187111 0)
(-0.130582 0.0122237 0)
(-0.121953 0.00710879 0)
(-0.109549 0.00095451 0)
(-0.0969224 -0.00827342 0)
(-0.0834702 -0.0208202 0)
(-0.0614479 -0.0428145 0)
(-0.0318679 -0.0877222 0)
(-0.0112281 -0.140669 0)
(0.00138528 -0.166824 0)
(-0.0281542 0.0240743 0)
(-0.331495 0.0383544 0)
(-0.508035 -0.00699636 0)
(-0.83709 0.0565293 0)
(-1.05384 -0.0150604 0)
(-0.595296 -0.0733003 0)
(0.0611134 -0.0448926 0)
(0.252118 0.00524925 0)
(0.0916532 0.0387409 0)
(-0.134028 0.00368894 0)
(-0.0128569 -0.108651 0)
(0.151599 0.0106473 0)
(-1.01188 0.121291 0)
(-1.54281 0.0184106 0)
(-1.52218 -0.0122551 0)
(-1.3974 -0.0195374 0)
(-1.18134 -0.0379647 0)
(-0.663134 -0.0832826 0)
(0.0926652 -0.0163589 0)
(-0.0573558 0.140344 0)
(-0.870573 0.275324 0)
(-1.18674 0.0604317 0)
(-1.02905 0.0536435 0)
(-0.791992 -0.205342 0)
(0.199132 -0.407097 0)
(0.427912 -0.198102 0)
(0.528279 0.00809557 0)
(0.482517 0.0862838 0)
(0.340693 0.138888 0)
(-0.0802252 -0.00346529 0)
(-1.40293 0.547994 0)
(-1.87448 0.247741 0)
(-1.76544 -0.0200162 0)
(-1.70915 -0.0726344 0)
(-1.69673 -0.0850935 0)
(-1.60595 -0.142089 0)
(-1.26812 -0.348151 0)
(-0.45059 -0.360034 0)
(-0.025178 0.182959 0)
(0.286605 0.784011 0)
(-0.246766 0.0311482 0)
(0.17649 -0.185894 0)
(0.642845 -0.290893 0)
(0.731515 -0.572977 0)
(0.571197 -0.204979 0)
(0.542813 0.0116721 0)
(0.552677 0.078206 0)
(0.432085 0.313293 0)
(-0.665565 0.553806 0)
(-1.74842 0.795133 0)
(-1.60791 0.23271 0)
(-2.1113 0.0131688 0)
(-2.61972 0.0731154 0)
(-2.97421 -0.0252639 0)
(-2.55199 -0.222753 0)
(-1.90289 -0.692701 0)
(-0.773087 -0.787678 0)
(-0.0711465 0.0723189 0)
(0.231575 0.456392 0)
(0.622498 0.0946494 0)
(0.72344 -0.289009 0)
(0.8852 -0.408092 0)
(0.846566 -0.483587 0)
(0.720164 -0.168995 0)
(0.560147 0.0557677 0)
(0.643755 0.00079471 0)
(0.356721 0.596565 0)
(-1.01884 1.145 0)
(-1.26834 0.79748 0)
(-1.16324 0.36411 0)
(-1.44238 0.193012 0)
(-1.70229 0.263518 0)
(-0.642398 -0.233454 0)
(-0.195893 -0.265273 0)
(-1.07665 -0.766173 0)
(-0.658166 -1.3764 0)
(-0.147361 0.037156 0)
(0.188002 0.398133 0)
(0.75293 -0.0869985 0)
(0.781794 -0.317301 0)
(0.907234 -0.442889 0)
(0.947702 -0.45428 0)
(0.92333 -0.10075 0)
(0.527989 0.150014 0)
(0.37833 0.010785 0)
(-0.136028 0.986691 0)
(-1.1711 1.47377 0)
(-0.800507 0.87292 0)
(-1.17304 0.323362 0)
(-0.976731 0.244042 0)
(0.498915 -0.374188 0)
(1.38215 -0.645367 0)
(1.60834 -0.343841 0)
(1.562 0.0795913 0)
(-0.212141 -1.48334 0)
(-0.588285 0.0167089 0)
(-0.860028 0.188575 0)
(0.525889 -0.191284 0)
(0.809089 -0.397949 0)
(0.932523 -0.482193 0)
(0.994706 -0.484848 0)
(0.891001 -0.0728633 0)
(0.374895 0.350374 0)
(-0.489583 0.298074 0)
(-0.989321 1.31715 0)
(-1.11299 1.37979 0)
(-1.53315 1.00809 0)
(-0.644252 0.171963 0)
(0.730841 -0.318879 0)
(1.22386 -0.626719 0)
(1.57268 -0.827543 0)
(1.68752 -0.37054 0)
(1.67466 0.113377 0)
(0.145114 -0.913203 0)
(-0.625449 0.0412106 0)
(0.563551 0.0634206 0)
(0.69832 -0.341992 0)
(0.840969 -0.458804 0)
(0.920755 -0.510569 0)
(0.619908 -0.392782 0)
(0.29885 0.353959 0)
(-0.201145 0.629442 0)
(-1.36902 0.649213 0)
(-1.4702 1.34556 0)
(-1.61591 1.52769 0)
(-0.799954 0.368818 0)
(0.7494 -0.400935 0)
(1.04851 -0.477394 0)
(1.21535 -0.711143 0)
(0.95776 -1.06972 0)
(3.10396 -0.374764 0)
(1.28079 0.278306 0)
(-0.347613 -0.525221 0)
(0.268114 -0.0934553 0)
(0.569689 -0.251311 0)
(0.748487 -0.407213 0)
(0.840708 -0.498114 0)
(0.53344 -0.377 0)
(-0.190812 -0.151351 0)
(-0.502843 0.614516 0)
(-0.786734 0.89074 0)
(-1.60258 0.835527 0)
(-1.76393 1.3914 0)
(-1.92068 1.4448 0)
(0.590436 -0.397868 0)
(0.93242 -0.507479 0)
(1.15212 -0.577474 0)
(-0.558506 -0.0671523 0)
(0.0486749 -1.66579 0)
(0.90774 -0.937232 0)
(-0.584745 1.52386 0)
(-0.403166 -0.434275 0)
(-0.35048 0.160244 0)
(-0.327681 0.0603691 0)
(-0.364144 0.0230177 0)
(-0.366737 0.0195037 0)
(-0.337504 -0.0162108 0)
(-0.134028 0.0297095 0)
(-0.0545621 0.055291 0)
(-0.0408738 0.0692054 0)
(-0.0571787 0.0816658 0)
(-0.0925864 0.0788742 0)
(-0.119304 0.0625173 0)
(-0.13621 0.0429844 0)
(-0.145172 0.0254055 0)
(-0.145833 0.0149427 0)
(-0.137021 0.00803881 0)
(-0.124089 0.00131074 0)
(-0.111449 -0.00591387 0)
(-0.101953 -0.0147142 0)
(-0.0934796 -0.0288441 0)
(-0.0818816 -0.0559297 0)
(-0.0627546 -0.103229 0)
(-0.0352152 -0.157364 0)
(0.0104777 -0.180557 0)
(-0.218469 0.755631 0)
(-0.523975 0.374657 0)
(-0.810151 0.139421 0)
(-0.755113 0.0696613 0)
(-0.700463 -0.150665 0)
(-0.872442 -0.323929 0)
(-0.791813 -0.0818438 0)
(-0.473246 0.00724892 0)
(-0.278039 0.0643512 0)
(-0.181976 0.0774097 0)
(-0.137959 0.0716136 0)
(-0.117353 0.0626942 0)
(-0.117257 0.043808 0)
(-0.1241 0.0208163 0)
(-0.136713 0.00580726 0)
(-0.140221 -0.0114156 0)
(-0.13461 -0.0212856 0)
(-0.12873 -0.0232486 0)
(-0.124098 -0.0318148 0)
(-0.13001 -0.0581133 0)
(-0.130186 -0.12013 0)
(-0.0966991 -0.209752 0)
(0.00928741 -0.280901 0)
(-0.122167 0.987639 0)
(-0.233691 0.632197 0)
(-0.435207 0.2187 0)
(-0.441562 -0.135877 0)
(-0.338453 -0.158843 0)
(-0.299704 -0.0024852 0)
(-0.477608 0.0965296 0)
(-0.750673 -0.0753028 0)
(-1.02313 -0.184901 0)
(-1.09447 -0.117057 0)
(-0.835984 -0.0807246 0)
(-0.496587 -0.0262678 0)
(-0.346423 0.00557216 0)
(-0.231258 0.00738486 0)
(-0.153544 0.0104502 0)
(-0.106883 -0.001276 0)
(-0.0891257 -0.0153516 0)
(-0.10463 -0.0148057 0)
(-0.126729 -0.0136802 0)
(-0.171832 -0.0413435 0)
(-0.218682 -0.116509 0)
(-0.258983 -0.266508 0)
(-0.0695477 -0.502371 0)
(0.0875073 0.913649 0)
(-0.0329934 0.610705 0)
(0.0798729 0.397956 0)
(-0.0162647 -0.0678685 0)
(-0.160622 -0.112547 0)
(-0.243066 0.0351181 0)
(-0.279795 0.121666 0)
(-0.364553 0.116936 0)
(-0.439249 0.145175 0)
(-0.541476 0.166322 0)
(-0.857083 0.0818504 0)
(-1.18635 -0.140747 0)
(-1.44498 -0.301884 0)
(-1.644 -0.28249 0)
(-1.68631 -0.0852166 0)
(-1.59455 -0.0985461 0)
(-1.31897 -0.182011 0)
(-0.843435 -0.0892467 0)
(-0.61186 0.00105751 0)
(-0.481987 0.00842712 0)
(-0.480192 0.00541528 0)
(-0.59508 -0.270825 0)
(-0.395372 -1.17678 0)
(0.0760707 0.574011 0)
(0.121341 0.560629 0)
(0.17952 0.365123 0)
(0.11415 0.0890586 0)
(-0.0880479 0.0588866 0)
(-0.203981 0.10906 0)
(-0.268949 0.146602 0)
(-0.2945 0.194581 0)
(-0.347597 0.200185 0)
(-0.395519 0.1655 0)
(-0.395506 0.13907 0)
(-0.422645 0.106728 0)
(-0.466973 0.0298324 0)
(-0.550495 -0.00224339 0)
(-0.679333 -0.00170943 0)
(-0.773214 -0.0385017 0)
(-0.964354 -0.126075 0)
(-1.22395 -0.292856 0)
(-1.36681 -0.323967 0)
(-1.15511 -0.291059 0)
(-0.714191 0.0854709 0)
(-0.830843 -0.228012 0)
(-0.82631 -1.05582 0)
(-0.0296035 0.485419 0)
(0.136898 0.584144 0)
(0.127537 0.375256 0)
(0.0579593 0.225143 0)
(-0.0815101 0.198133 0)
(-0.17791 0.198514 0)
(-0.25301 0.203585 0)
(-0.305509 0.220794 0)
(-0.33082 0.239266 0)
(-0.369443 0.210416 0)
(-0.419655 0.178033 0)
(-0.468244 0.147337 0)
(-0.519273 0.107044 0)
(-0.615997 0.0797159 0)
(-0.723395 0.0705253 0)
(-0.852897 0.0459007 0)
(-1.0038 0.0301176 0)
(-1.18033 0.0337146 0)
(-1.31689 0.0349534 0)
(-1.56411 -0.141819 0)
(-1.74577 -0.347155 0)
(-1.09931 -0.908019 0)
(-1.19015 -0.566229 0)
(-0.0231024 0.508097 0)
(0.0691255 0.499127 0)
(0.0771579 0.418872 0)
(-0.00801599 0.340937 0)
(-0.101832 0.298793 0)
(-0.183994 0.280266 0)
(-0.254794 0.271493 0)
(-0.316626 0.268579 0)
(-0.359916 0.268753 0)
(-0.397946 0.254371 0)
(-0.443343 0.229102 0)
(-0.497251 0.201363 0)
(-0.55798 0.175928 0)
(-0.632947 0.159551 0)
(-0.716237 0.158976 0)
(-0.817894 0.176307 0)
(-0.967844 0.228079 0)
(-1.16932 0.217037 0)
(-1.22132 0.00526873 0)
(-1.28887 -0.0740438 0)
(-1.2832 -0.400915 0)
(-1.34395 -0.866535 0)
(-1.70901 0.524361 0)
(-0.0119768 0.538515 0)
(-0.00394338 0.458572 0)
(-0.0190776 0.462789 0)
(-0.0690597 0.417778 0)
(-0.133858 0.376056 0)
(-0.202276 0.352197 0)
(-0.267286 0.336503 0)
(-0.327339 0.324687 0)
(-0.379714 0.313177 0)
(-0.42625 0.297572 0)
(-0.472471 0.277435 0)
(-0.522167 0.256259 0)
(-0.576006 0.238705 0)
(-0.635486 0.231837 0)
(-0.700405 0.242483 0)
(-0.775027 0.283957 0)
(-0.871934 0.378406 0)
(-0.985161 0.329644 0)
(-1.09073 0.0950664 0)
(-1.34423 0.0974592 0)
(-1.41989 -0.359255 0)
(-1.67395 -0.673363 0)
(-2.00869 1.53718 0)
(-0.0125739 0.573877 0)
(-0.0367864 0.473609 0)
(-0.0687339 0.497758 0)
(-0.109032 0.468681 0)
(-0.163337 0.438609 0)
(-0.223417 0.416043 0)
(-0.283936 0.397847 0)
(-0.342257 0.381604 0)
(-0.397003 0.364787 0)
(-0.448152 0.345841 0)
(-0.496659 0.32529 0)
(-0.543281 0.305086 0)
(-0.588674 0.289664 0)
(-0.632761 0.28525 0)
(-0.67396 0.298464 0)
(-0.71894 0.351504 0)
(-0.775144 0.45787 0)
(-0.862104 0.461534 0)
(-1.10346 0.356246 0)
(-1.50194 0.372461 0)
(-1.60809 -0.262387 0)
(-1.83224 -0.430493 0)
(-1.82166 1.15391 0)
(-0.0151889 0.621059 0)
(-0.0529112 0.507068 0)
(-0.0911615 0.536273 0)
(-0.135127 0.516767 0)
(-0.187074 0.494892 0)
(-0.24392 0.475389 0)
(-0.302527 0.457057 0)
(-0.360672 0.438759 0)
(-0.416874 0.418979 0)
(-0.470233 0.396825 0)
(-0.51969 0.372727 0)
(-0.564062 0.348749 0)
(-0.601935 0.328967 0)
(-0.630504 0.317983 0)
(-0.648968 0.327371 0)
(-0.662508 0.386056 0)
(-0.677563 0.50319 0)
(-0.744165 0.611087 0)
(-0.996449 0.746798 0)
(-1.45459 0.690418 0)
(-1.70888 -0.160348 0)
(-1.89297 -0.205326 0)
(-1.95003 0.576643 0)
(-0.0177352 0.678323 0)
(-0.0634817 0.547333 0)
(-0.106169 0.579684 0)
(-0.153401 0.56604 0)
(-0.205886 0.549748 0)
(-0.262459 0.533446 0)
(-0.321344 0.516192 0)
(-0.380905 0.497222 0)
(-0.439562 0.475377 0)
(-0.495666 0.449714 0)
(-0.547086 0.420261 0)
(-0.590939 0.388601 0)
(-0.623179 0.357649 0)
(-0.638413 0.33181 0)
(-0.629809 0.324968 0)
(-0.593898 0.369772 0)
(-0.565898 0.510174 0)
(-0.628829 0.749104 0)
(-0.835862 1.08201 0)
(-1.19237 1.14799 0)
(-1.69986 0.0820606 0)
(-1.87665 0.0697904 0)
(-2.25747 0.279171 0)
(-0.0200315 0.743346 0)
(-0.0708272 0.591691 0)
(-0.116532 0.62676 0)
(-0.16641 0.617286 0)
(-0.220522 0.605376 0)
(-0.278444 0.592319 0)
(-0.339261 0.576991 0)
(-0.401817 0.558481 0)
(-0.464626 0.53538 0)
(-0.525672 0.506278 0)
(-0.581924 0.470243 0)
(-0.628955 0.427546 0)
(-0.660398 0.379333 0)
(-0.665374 0.326397 0)
(-0.637872 0.286007 0)
(-0.601445 0.326292 0)
(-0.603834 0.513136 0)
(-0.695904 0.883031 0)
(-0.89243 1.31294 0)
(-1.08739 1.55273 0)
(-1.55417 0.45126 0)
(-1.7616 0.318897 0)
(-2.02287 0.919042 0)
(-0.0218548 0.813841 0)
(-0.0756596 0.638387 0)
(-0.12314 0.676429 0)
(-0.175166 0.670631 0)
(-0.231209 0.662764 0)
(-0.291328 0.653337 0)
(-0.355217 0.640926 0)
(-0.422238 0.624218 0)
(-0.491249 0.60125 0)
(-0.560223 0.569635 0)
(-0.625663 0.526923 0)
(-0.681999 0.47134 0)
(-0.719226 0.399379 0)
(-0.726139 0.315056 0)
(-0.729903 0.274003 0)
(-0.783165 0.349531 0)
(-0.912391 0.628743 0)
(-1.0693 1.06941 0)
(-1.18238 1.47825 0)
(-1.15138 1.64136 0)
(-1.23554 0.924378 0)
(-1.53205 0.432318 0)
(-1.49376 0.890952 0)
(-0.0227961 0.8868 0)
(-0.0776642 0.686433 0)
(-0.126258 0.727825 0)
(-0.179849 0.725826 0)
(-0.237686 0.722229 0)
(-0.300235 0.71721 0)
(-0.367797 0.709078 0)
(-0.440417 0.696103 0)
(-0.517604 0.675587 0)
(-0.59792 0.643871 0)
(-0.678114 0.596468 0)
(-0.751785 0.527612 0)
(-0.804465 0.427162 0)
(-0.835537 0.330025 0)
(-0.890585 0.329915 0)
(-0.990533 0.473313 0)
(-1.09896 0.784866 0)
(-1.14614 1.1443 0)
(-1.11556 1.44112 0)
(-0.984513 1.48697 0)
(-0.941551 1.16831 0)
(-1.3225 0.543698 0)
(-1.36521 0.738252 0)
(-0.0220893 0.958355 0)
(-0.0763211 0.735357 0)
(-0.125749 0.780256 0)
(-0.180242 0.782373 0)
(-0.239312 0.783562 0)
(-0.303918 0.784028 0)
(-0.375078 0.781968 0)
(-0.453708 0.775352 0)
(-0.540466 0.760866 0)
(-0.635248 0.733543 0)
(-0.736261 0.686438 0)
(-0.837449 0.607395 0)
(-0.926831 0.485319 0)
(-1.0092 0.389948 0)
(-1.0763 0.407192 0)
(-1.10053 0.529622 0)
(-1.04695 0.763625 0)
(-0.949343 1.09086 0)
(-0.934148 1.40137 0)
(-0.98969 1.42291 0)
(-1.0449 1.29326 0)
(-1.21108 0.897623 0)
(-1.36447 0.769578 0)
(-0.0188783 1.02423 0)
(-0.0717356 0.784664 0)
(-0.121574 0.833001 0)
(-0.176015 0.839455 0)
(-0.235266 0.845997 0)
(-0.30087 0.85316 0)
(-0.37461 0.859227 0)
(-0.458534 0.862221 0)
(-0.554847 0.858607 0)
(-0.665737 0.842578 0)
(-0.792483 0.804826 0)
(-0.932738 0.727413 0)
(-1.08123 0.60169 0)
(-1.21772 0.48174 0)
(-1.24271 0.414004 0)
(-1.06873 0.444572 0)
(-0.826284 0.540045 0)
(-0.572606 0.939743 0)
(-0.741911 1.73948 0)
(-1.52886 1.6985 0)
(-1.57851 1.25343 0)
(-0.936871 0.720124 0)
(-1.21005 0.887842 0)
(-0.0139618 1.08064 0)
(-0.0645626 0.833565 0)
(-0.113912 0.885057 0)
(-0.166921 0.895817 0)
(-0.22475 0.908138 0)
(-0.289495 0.923084 0)
(-0.363716 0.939309 0)
(-0.450577 0.955346 0)
(-0.554138 0.968214 0)
(-0.679595 0.972436 0)
(-0.833192 0.95782 0)
(-1.0214 0.904025 0)
(-1.24845 0.791479 0)
(-1.44517 0.573295 0)
(-1.42607 0.231289 0)
(-1.59726 0.306611 0)
(-2.28754 0.711634 0)
(-2.44869 1.07622 0)
(-2.39549 2.14566 0)
(-2.25521 1.86281 0)
(-2.11104 0.874044 0)
(-2.13327 0.796769 0)
(-1.77513 0.834559 0)
(-0.010363 1.12676 0)
(-0.0561166 0.880883 0)
(-0.103207 0.934958 0)
(-0.152913 0.949723 0)
(-0.207184 0.967937 0)
(-0.268494 0.991343 0)
(-0.339921 1.01922 0)
(-0.425547 1.05118 0)
(-0.531015 1.08575 0)
(-0.664485 1.11958 0)
(-0.837998 1.14537 0)
(-1.07121 1.14813 0)
(-1.4007 1.09734 0)
(-1.87429 0.838485 0)
(-2.53259 0.711121 0)
(-2.99862 0.90373 0)
(-3.1632 0.930708 0)
(-3.12937 1.04575 0)
(-3.09556 1.82034 0)
(-2.54047 1.5954 0)
(-2.31356 0.877502 0)
(-1.60589 0.35223 0)
(-1.07379 0.338444 0)
(-0.00951836 1.16539 0)
(-0.0479534 0.924557 0)
(-0.0900134 0.980674 0)
(-0.134185 0.999014 0)
(-0.182436 1.02282 0)
(-0.237212 1.05465 0)
(-0.301712 1.09463 0)
(-0.380318 1.14383 0)
(-0.479428 1.20317 0)
(-0.608754 1.27301 0)
(-0.783076 1.3524 0)
(-1.02484 1.43874 0)
(-1.36445 1.53725 0)
(-1.87453 1.55707 0)
(-2.58858 1.18823 0)
(-2.86732 1.02996 0)
(-2.842 0.898168 0)
(-2.98254 1.18783 0)
(-2.68017 1.35376 0)
(-1.6137 0.862289 0)
(-0.897596 0.161111 0)
(-1.34794 0.299156 0)
(-1.85796 0.446291 0)
(-0.00941284 1.1991 0)
(-0.0403358 0.962012 0)
(-0.0746928 1.01994 0)
(-0.111182 1.04139 0)
(-0.150983 1.07001 0)
(-0.196073 1.1093 0)
(-0.249195 1.16029 0)
(-0.314258 1.2257 0)
(-0.39719 1.30914 0)
(-0.507342 1.41529 0)
(-0.659466 1.54936 0)
(-0.875547 1.71477 0)
(-1.19509 1.92158 0)
(-1.52898 1.94 0)
(-1.25578 1.4659 0)
(-0.985401 1.32881 0)
(-1.6982 1.16407 0)
(-1.81177 0.883928 0)
(-1.22505 0.399317 0)
(-0.940775 0.254602 0)
(-1.08065 0.511584 0)
(-1.54074 0.968574 0)
(-1.46842 0.385096 0)
(-0.00822059 1.22765 0)
(-0.0324548 0.991302 0)
(-0.057478 1.05084 0)
(-0.0846811 1.07483 0)
(-0.114063 1.10692 0)
(-0.146767 1.15172 0)
(-0.184593 1.21096 0)
(-0.230098 1.28879 0)
(-0.287334 1.39128 0)
(-0.363189 1.52752 0)
(-0.470191 1.7104 0)
(-0.634114 1.96099 0)
(-0.931627 2.30653 0)
(-1.20354 1.87228 0)
(-0.997654 0.951442 0)
(-0.753833 1.17339 0)
(-0.343438 1.79307 0)
(-0.612129 0.844204 0)
(-0.881997 0.436138 0)
(-1.10743 0.345023 0)
(-1.10105 0.630838 0)
(-0.702371 0.674076 0)
(-0.0753076 -0.0835401 0)
(-0.00618925 1.24979 0)
(-0.0239045 1.0114 0)
(-0.0388495 1.07219 0)
(-0.0558795 1.09792 0)
(-0.0736388 1.13166 0)
(-0.0922604 1.17918 0)
(-0.112218 1.24248 0)
(-0.134091 1.32643 0)
(-0.158711 1.43847 0)
(-0.187535 1.59056 0)
(-0.223833 1.80313 0)
(-0.277867 2.1161 0)
(-0.351398 2.63802 0)
(-0.805559 1.89598 0)
(-1.14276 1.01609 0)
(-1.2436 0.688716 0)
(-0.502687 1.12799 0)
(-0.0305498 1.13331 0)
(-0.232157 0.695371 0)
(-0.289349 0.392285 0)
(-0.13752 0.31806 0)
(0.384441 -0.0120539 0)
(0.998701 -0.670571 0)
(-0.00407956 1.2651 0)
(-0.0150157 1.02181 0)
(-0.0196095 1.08346 0)
(-0.0263149 1.11005 0)
(-0.0321929 1.14334 0)
(-0.0363353 1.19037 0)
(-0.0378981 1.25284 0)
(-0.0352944 1.33526 0)
(-0.0258134 1.44444 0)
(-0.00440369 1.5912 0)
(0.0398021 1.79367 0)
(0.129481 2.08393 0)
(0.334336 2.54213 0)
(0.589176 2.66871 0)
(-0.181146 1.44132 0)
(-0.417842 0.778673 0)
(-0.543263 0.525468 0)
(-0.0996857 0.633424 0)
(0.399639 0.566516 0)
(0.721946 0.2771 0)
(1.06669 -0.061662 0)
(1.48379 -0.527235 0)
(1.6644 -0.925028 0)
(-0.00211298 1.27382 0)
(-0.00625804 1.02243 0)
(-0.000781756 1.08474 0)
(0.00232242 1.1114 0)
(0.00767212 1.14218 0)
(0.0170486 1.18568 0)
(0.032311 1.24279 0)
(0.0565735 1.31667 0)
(0.0949329 1.4118 0)
(0.156436 1.53422 0)
(0.257648 1.69124 0)
(0.430474 1.88948 0)
(0.73942 2.12299 0)
(1.30865 2.31399 0)
(1.71451 1.92436 0)
(1.60906 1.07646 0)
(1.421 0.583832 0)
(1.40317 0.372274 0)
(1.55891 0.200014 0)
(1.76155 -0.0478904 0)
(1.88354 -0.344422 0)
(1.84098 -0.601226 0)
(1.64807 -0.75536 0)
(-6.52508e-05 1.27632 0)
(0.00196416 1.01392 0)
(0.0165411 1.07665 0)
(0.0284321 1.1029 0)
(0.0436467 1.12941 0)
(0.0645844 1.16702 0)
(0.0935384 1.21545 0)
(0.134256 1.27621 0)
(0.192452 1.35096 0)
(0.277125 1.44069 0)
(0.402397 1.54379 0)
(0.589886 1.65119 0)
(0.868753 1.73391 0)
(1.26182 1.71955 0)
(1.71714 1.48978 0)
(1.98264 1.04893 0)
(1.99586 0.645024 0)
(1.94077 0.373459 0)
(1.89842 0.156015 0)
(1.84551 -0.0546582 0)
(1.74948 -0.254942 0)
(1.61774 -0.429506 0)
(1.47658 -0.569673 0)
(0.00204977 1.27173 0)
(0.00942691 0.997689 0)
(0.0312816 1.06027 0)
(0.0507163 1.08585 0)
(0.0740839 1.10692 0)
(0.10406 1.13724 0)
(0.14294 1.17535 0)
(0.194299 1.22123 0)
(0.263172 1.2744 0)
(0.356477 1.33271 0)
(0.483315 1.39055 0)
(0.654098 1.43555 0)
(0.876247 1.44375 0)
(1.14109 1.37648 0)
(1.40275 1.1963 0)
(1.58378 0.923529 0)
(1.65124 0.643571 0)
(1.65094 0.406918 0)
(1.62653 0.202846 0)
(1.58697 0.0135142 0)
(1.52875 -0.164383 0)
(1.45077 -0.323106 0)
(1.35733 -0.454715 0)
(0.00411006 1.2601 0)
(0.0157508 0.975386 0)
(0.0428116 1.03714 0)
(0.0683822 1.06169 0)
(0.0981022 1.07688 0)
(0.13451 1.09947 0)
(0.179663 1.12708 0)
(0.236566 1.15856 0)
(0.30902 1.19223 0)
(0.401582 1.22465 0)
(0.519049 1.24957 0)
(0.665011 1.2565 0)
(0.838348 1.22979 0)
(1.02739 1.15096 0)
(1.20501 1.00851 0)
(1.337 0.814985 0)
(1.40917 0.605332 0)
(1.43523 0.406272 0)
(1.43351 0.222723 0)
(1.41183 0.0517929 0)
(1.37127 -0.106385 0)
(1.31363 -0.247976 0)
(1.24394 -0.369455 0)
(0.00623802 1.24159 0)
(0.0204281 0.949139 0)
(0.0509386 1.00905 0)
(0.0812615 1.03192 0)
(0.115572 1.04146 0)
(0.156008 1.05668 0)
(0.20435 1.0746 0)
(0.262905 1.09343 0)
(0.334284 1.11103 0)
(0.421103 1.12384 0)
(0.525403 1.12645 0)
(0.647414 1.1112 0)
(0.783665 1.0687 0)
(0.924729 0.990108 0)
(1.05511 0.872108 0)
(1.15811 0.722053 0)
(1.22525 0.556223 0)
(1.25943 0.389485 0)
(1.26815 0.229077 0)
(1.25692 0.0773445 0)
(1.22892 -0.0639885 0)
(1.18718 -0.192428 0)
(1.1356 -0.305838 0)
(0.00802746 1.21696 0)
(0.0235691 0.921098 0)
(0.056002 0.977701 0)
(0.0896949 0.998048 0)
(0.126925 1.00266 0)
(0.169323 1.01137 0)
(0.218458 1.02094 0)
(0.275988 1.02934 0)
(0.343562 1.03444 0)
(0.422498 1.03313 0)
(0.513279 1.02117 0)
(0.614815 0.99333 0)
(0.723483 0.94408 0)
(0.83251 0.86915 0)
(0.932573 0.767787 0)
(1.0145 0.644512 0)
(1.07289 0.507916 0)
(1.10758 0.366786 0)
(1.1215 0.227186 0)
(1.11797 0.0926632 0)
(1.09987 -0.0343798 0)
(1.06999 -0.151782 0)
(1.0315 -0.257967 0)
(0.00902161 1.18809 0)
(0.0260158 0.893199 0)
(0.0587464 0.944583 0)
(0.0943463 0.96165 0)
(0.132909 0.962243 0)
(0.175598 0.965543 0)
(0.223756 0.96826 0)
(0.278545 0.968445 0)
(0.340903 0.964223 0)
(0.411368 0.953057 0)
(0.48966 0.931812 0)
(0.574314 0.897021 0)
(0.662251 0.845421 0)
(0.748687 0.774916 0)
(0.827768 0.685596 0)
(0.893941 0.580356 0)
(0.943609 0.464233 0)
(0.97581 0.342722 0)
(0.991558 0.220429 0)
(0.992737 0.100695 0)
(0.981482 -0.014064 0)
(0.960119 -0.121927 0)
(0.931212 -0.221535 0)
(0.00956094 1.15697 0)
(0.027419 0.866203 0)
(0.0596607 0.910834 0)
(0.0958909 0.924252 0)
(0.13442 0.921709 0)
(0.176098 0.920697 0)
(0.222057 0.918015 0)
(0.27306 0.91196 0)
(0.329607 0.900986 0)
(0.391767 0.883118 0)
(0.458976 0.856113 0)
(0.529783 0.817685 0)
(0.601752 0.765909 0)
(0.671485 0.699749 0)
(0.735139 0.619558 0)
(0.789123 0.52728 0)
(0.830945 0.426116 0)
(0.859572 0.319696 0)
(0.87524 0.211412 0)
(0.879008 0.104038 0)
(0.872399 -0.000297655 0)
(0.857249 -0.0999536 0)
(0.835651 -0.193781 0)
(0.010839 1.12397 0)
(0.0262675 0.84004 0)
(0.0588921 0.877012 0)
(0.0949188 0.887071 0)
(0.132367 0.88222 0)
(0.172094 0.877905 0)
(0.215036 0.871122 0)
(0.261693 0.860479 0)
(0.31228 0.844752 0)
(0.366657 0.822454 0)
(0.424162 0.792005 0)
(0.483543 0.751914 0)
(0.542898 0.701033 0)
(0.599807 0.63888 0)
(0.651637 0.56585 0)
(0.695975 0.483324 0)
(0.731042 0.393448 0)
(0.755952 0.298734 0)
(0.770655 0.201668 0)
(0.775764 0.104434 0)
(0.772356 0.00876876 0)
(0.761851 -0.0839631 0)
(0.745838 -0.172801 0)
(0.0137571 1.08725 0)
(0.0231617 0.815422 0)
(0.0569257 0.843142 0)
(0.0921069 0.851001 0)
(0.127675 0.844628 0)
(0.16478 0.837908 0)
(0.204187 0.828127 0)
(0.246237 0.814216 0)
(0.290997 0.79524 0)
(0.338227 0.770112 0)
(0.387299 0.737738 0)
(0.437165 0.697151 0)
(0.486379 0.647672 0)
(0.53318 0.5891 0)
(0.575731 0.521819 0)
(0.61234 0.446839 0)
(0.641732 0.36568 0)
(0.663191 0.280118 0)
(0.676579 0.191994 0)
(0.682245 0.102987 0)
(0.680911 0.0144912 0)
(0.673542 -0.0723724 0)
(0.66124 -0.156684 0)
(0.0175604 1.04402 0)
(0.0215137 0.794686 0)
(0.0547788 0.809333 0)
(0.0882623 0.816801 0)
(0.121267 0.809593 0)
(0.155222 0.801217 0)
(0.190778 0.789325 0)
(0.228161 0.773149 0)
(0.267366 0.752019 0)
(0.308124 0.725162 0)
(0.349877 0.69184 0)
(0.391774 0.651429 0)
(0.432707 0.603536 0)
(0.471387 0.548114 0)
(0.506494 0.48551 0)
(0.536814 0.416493 0)
(0.561401 0.342172 0)
(0.579691 0.263848 0)
(0.591489 0.1829 0)
(0.596943 0.10065 0)
(0.596467 0.0182355 0)
(0.590689 -0.0633929 0)
(0.5804 -0.143453 0)
(0.0201216 0.993213 0)
(0.0245057 0.780601 0)
(0.0534723 0.776463 0)
(0.0841404 0.785256 0)
(0.113902 0.777694 0)
(0.144277 0.768204 0)
(0.17578 0.754843 0)
(0.208556 0.737126 0)
(0.24254 0.714602 0)
(0.277466 0.686753 0)
(0.312841 0.653089 0)
(0.34798 0.61322 0)
(0.382023 0.566931 0)
(0.414004 0.51426 0)
(0.442942 0.455516 0)
(0.467937 0.391307 0)
(0.488262 0.322474 0)
(0.503444 0.250002 0)
(0.513263 0.174967 0)
(0.517747 0.0984221 0)
(0.517158 0.0212835 0)
(0.511959 -0.0556832 0)
(0.502736 -0.131846 0)
(0.0196635 0.937448 0)
(0.0321232 0.77326 0)
(0.053599 0.746659 0)
(0.080139 0.757208 0)
(0.106025 0.749466 0)
(0.132473 0.73914 0)
(0.159819 0.724714 0)
(0.188099 0.705933 0)
(0.217192 0.682527 0)
(0.246823 0.654162 0)
(0.27656 0.62053 0)
(0.305831 0.581397 0)
(0.333957 0.536662 0)
(0.360188 0.486413 0)
(0.383775 0.430931 0)
(0.404026 0.370707 0)
(0.420382 0.306401 0)
(0.432464 0.23878 0)
(0.440087 0.168687 0)
(0.443259 0.0969571 0)
(0.442146 0.0243314 0)
(0.437044 -0.0485413 0)
(0.42819 -0.121057 0)
(0.0162725 0.88231 0)
(0.0412755 0.768186 0)
(0.0548231 0.722693 0)
(0.0760622 0.733431 0)
(0.0976347 0.725323 0)
(0.119946 0.714189 0)
(0.143115 0.698896 0)
(0.167032 0.679345 0)
(0.191509 0.655388 0)
(0.216261 0.626819 0)
(0.240894 0.593456 0)
(0.264926 0.555169 0)
(0.287808 0.511926 0)
(0.308949 0.463842 0)
(0.327774 0.411168 0)
(0.343759 0.354303 0)
(0.356484 0.29377 0)
(0.365667 0.230169 0)
(0.371155 0.164172 0)
(0.372909 0.0964798 0)
(0.370953 0.0277589 0)
(0.365362 -0.0413427 0)
(0.35624 -0.110235 0)
(0.0118605 0.832404 0)
(0.0480413 0.759737 0)
(0.0556322 0.706278 0)
(0.0711962 0.714365 0)
(0.0883742 0.705458 0)
(0.106547 0.693396 0)
(0.125616 0.677308 0)
(0.145338 0.657162 0)
(0.165458 0.632867 0)
(0.185683 0.604297 0)
(0.205654 0.571347 0)
(0.224963 0.533948 0)
(0.243164 0.492111 0)
(0.259795 0.445955 0)
(0.274411 0.395694 0)
(0.286607 0.341659 0)
(0.29605 0.284273 0)
(0.302497 0.224026 0)
(0.305786 0.16149 0)
(0.305853 0.0972839 0)
(0.302755 0.032011 0)
(0.296674 -0.0337873 0)
(0.287883 -0.0996316 0)
(0.00839293 0.789321 0)
(0.050004 0.746182 0)
(0.054003 0.696744 0)
(0.0647585 0.699853 0)
(0.0778754 0.689747 0)
(0.0921469 0.676634 0)
(0.107326 0.659784 0)
(0.123086 0.639153 0)
(0.139141 0.614657 0)
(0.155197 0.586206 0)
(0.17093 0.553735 0)
(0.185991 0.517211 0)
(0.200011 0.476664 0)
(0.212613 0.432211 0)
(0.223434 0.384041 0)
(0.232134 0.332437 0)
(0.238433 0.277755 0)
(0.24214 0.220397 0)
(0.243192 0.160814 0)
(0.241694 0.0994696 0)
(0.237871 0.0368337 0)
(0.231871 -0.026501 0)
(0.22359 -0.0897398 0)
(0.00629 0.752771 0)
(0.0469911 0.730169 0)
(0.0489073 0.691668 0)
(0.0563696 0.6892 0)
(0.066024 0.677783 0)
(0.0767979 0.663608 0)
(0.0883968 0.646057 0)
(0.100486 0.62503 0)
(0.11278 0.600427 0)
(0.124998 0.572168 0)
(0.136847 0.540204 0)
(0.148024 0.504524 0)
(0.158212 0.465169 0)
(0.167096 0.422254 0)
(0.174379 0.375946 0)
(0.179799 0.326479 0)
(0.183172 0.274126 0)
(0.184417 0.219165 0)
(0.183568 0.161896 0)
(0.180742 0.102677 0)
(0.176118 0.0419855 0)
(0.169911 -0.01944 0)
(0.162301 -0.080647 0)
(0.00501544 0.722055 0)
(0.0402983 0.715614 0)
(0.0408686 0.688665 0)
(0.0461677 0.681601 0)
(0.0529494 0.669058 0)
(0.0606415 0.653962 0)
(0.0689825 0.635831 0)
(0.0776837 0.614514 0)
(0.0864826 0.589893 0)
(0.0951282 0.561887 0)
(0.103368 0.530453 0)
(0.110945 0.495591 0)
(0.117602 0.457342 0)
(0.123093 0.415807 0)
(0.127195 0.371122 0)
(0.129721 0.323462 0)
(0.130524 0.27303 0)
(0.129506 0.220027 0)
(0.126634 0.164675 0)
(0.122027 0.107202 0)
(0.116091 0.0478616 0)
(0.109562 -0.0127416 0)
(0.103055 -0.0729883 0)
(0.00413511 0.693456 0)