/*--------------------------------*- C++ -*----------------------------------*\
| =========                 |                                                 |
| \\      /  F ield         | OpenFOAM: The Open Source CFD Toolbox           |
|  \\    /   O peration     | Version:  v1912                                 |
|   \\  /    A nd           | Website:  www.openfoam.com                      |
|    \\/     M anipulation  |                                                 |
\*---------------------------------------------------------------------------*/
FoamFile
{
    version     2.0;
    format      ascii;
    class       surfaceScalarField;
    location    "0.1";
    object      alphaPhi0.water;
}
// * * * * * * * * * * * * * * * * * * * * * * * * * * * * * * * * * * * * * //

dimensions      [0 3 -1 0 0 0 0];
oriented        oriented;


internalField   nonuniform List<scalar> 
17936
(
1.20015e-06
-2.41383e-06
1.21368e-06
-2.67446e-06
4.08314e-06
-1.40868e-06
-5.46259e-06
6.85026e-06
-1.38767e-06
-8.2568e-06
9.68546e-06
-1.42866e-06
-1.11394e-05
1.26224e-05
-1.48295e-06
-1.41385e-05
1.56925e-05
-1.55393e-06
-1.72891e-05
1.89334e-05
-1.64437e-06
-2.0631e-05
2.23875e-05
-1.75644e-06
-2.42089e-05
2.61019e-05
-1.893e-06
-2.80734e-05
3.01304e-05
-2.057e-06
-3.22805e-05
3.45313e-05
-2.25082e-06
-3.68918e-05
3.93691e-05
-2.47733e-06
-4.19698e-05
4.46944e-05
-2.72459e-06
-4.75377e-05
5.05065e-05
-2.96883e-06
-5.36292e-05
5.69214e-05
-3.29236e-06
-6.02975e-05
6.35012e-05
-3.20394e-06
-6.61522e-05
6.7882e-05
-1.76036e-06
-6.84436e-05
6.83163e-05
4.41575e-08
-6.79688e-05
6.68202e-05
-6.64342e-08
-4.64166e-05
7.75773e-06
3.87025e-07
-1.97642e-06
6.13743e-07
6.80522e-07
-1.3587e-07
2.45846e-08
8.03316e-08
-4.48366e-09
9.34736e-10
2.72471e-09
3.628e-06
-4.84215e-06
1.21414e-06
-2.69292e-06
4.11124e-06
2.82943e-06
-4.24775e-06
-5.50106e-06
6.89788e-06
2.78669e-06
-4.1835e-06
-8.31302e-06
9.75004e-06
2.86837e-06
-4.30539e-06
-1.12121e-05
1.27028e-05
2.9768e-06
-4.46755e-06
-1.42264e-05
1.57873e-05
3.11849e-06
-4.67935e-06
-1.73902e-05
1.90401e-05
3.29881e-06
-4.94875e-06
-2.07425e-05
2.25028e-05
3.52226e-06
-5.28261e-06
-2.43272e-05
2.62222e-05
3.79456e-06
-5.68953e-06
-2.81945e-05
3.02513e-05
4.12147e-06
-6.17825e-06
-3.24006e-05
3.46504e-05
4.50881e-06
-6.75859e-06
-3.70069e-05
3.94779e-05
4.9578e-06
-7.42878e-06
-4.20792e-05
4.48189e-05
5.46437e-06
-8.20413e-06
-4.7679e-05
5.06387e-05
5.94035e-06
-8.9001e-06
-5.3715e-05
5.69495e-05
6.52857e-06
-9.76333e-06
-6.03123e-05
6.36247e-05
6.48508e-06
-9.80236e-06
-6.66231e-05
6.91869e-05
4.04367e-06
-6.63313e-06
-7.13994e-05
7.31419e-05
5.20136e-07
-2.60545e-06
-6.61319e-05
4.17631e-05
7.28669e-08
-3.02149e-08
-2.97194e-05
2.46658e-05
1.75843e-06
-1.13898e-06
-9.9419e-06
1.19753e-06
-1.48095e-06
5.66719e-07
-5.31119e-07
1.93806e-07
-4.34821e-07
4.93216e-07
-5.41286e-08
1.35593e-08
-3.72117e-08
6.39918e-08
6.056e-06
-7.26891e-06
1.21291e-06
-2.68372e-06
4.0942e-06
5.66267e-06
-7.07315e-06
-5.47792e-06
6.86855e-06
5.57765e-06
-6.96829e-06
-8.27693e-06
9.70664e-06
5.73916e-06
-7.16886e-06
-1.11608e-05
1.26431e-05
5.95455e-06
-7.43688e-06
-1.41577e-05
1.57088e-05
6.23588e-06
-7.78697e-06
-1.7301e-05
1.89394e-05
6.59347e-06
-8.23178e-06
-2.0629e-05
2.23755e-05
7.0367e-06
-8.78317e-06
-2.41847e-05
2.60633e-05
7.57706e-06
-9.45566e-06
-2.80181e-05
3.00563e-05
8.22652e-06
-1.02647e-05
-3.21862e-05
3.44158e-05
8.99921e-06
-1.12288e-05
-3.6752e-05
3.92062e-05
9.89168e-06
-1.23459e-05
-4.17968e-05
4.45257e-05
1.09399e-05
-1.36688e-05
-4.73673e-05
5.03175e-05
1.18531e-05
-1.48033e-05
-5.3441e-05
5.68227e-05
1.30557e-05
-1.64382e-05
-6.04387e-05
6.41047e-05
1.32806e-05
-1.69681e-05
-6.75382e-05
7.03515e-05
9.37253e-06
-1.2586e-05
-7.14234e-05
6.50631e-05
4.63994e-06
-6.7074e-06
-4.1341e-05
1.33346e-05
1.16629e-06
-1.00481e-06
-3.03119e-06
1.88106e-06
-6.51457e-10
2.29264e-08
-1.95319e-06
1.80958e-06
-1.67623e-07
-4.22753e-08
-7.35128e-07
-9.6244e-09
-3.3278e-07
2.44135e-07
9.25736e-09
2.22781e-09
-5.02243e-08
2.71844e-08
8.48032e-06
-9.68994e-06
1.20962e-06
-2.66871e-06
4.06739e-06
8.47815e-06
-9.87683e-06
-5.44128e-06
6.82236e-06
8.35451e-06
-9.73558e-06
-8.22061e-06
9.63943e-06
8.59353e-06
-1.00123e-05
-1.1082e-05
1.25518e-05
8.91344e-06
-1.03833e-05
-1.40531e-05
1.55899e-05
9.33144e-06
-1.08683e-05
-1.71668e-05
1.87885e-05
9.86235e-06
-1.14841e-05
-2.04601e-05
2.21871e-05
1.05206e-05
-1.22475e-05
-2.39753e-05
2.58313e-05
1.13237e-05
-1.31796e-05
-2.77618e-05
2.97744e-05
1.22909e-05
-1.43035e-05
-3.18776e-05
3.40794e-05
1.34454e-05
-1.56472e-05
-3.63882e-05
3.88198e-05
1.47898e-05
-1.72214e-05
-4.13926e-05
4.40982e-05
1.63879e-05
-1.90935e-05
-4.69125e-05
4.98759e-05
1.7755e-05
-2.07184e-05
-5.31224e-05
5.67666e-05
1.99413e-05
-2.35873e-05
-6.07604e-05
6.48735e-05
2.09112e-05
-2.51209e-05
-6.83571e-05
6.61696e-05
1.61275e-05
-1.96835e-05
-4.20815e-05
1.0319e-05
6.62377e-06
-3.57245e-06
-3.20744e-06
1.84881e-06
2.96725e-07
-4.00786e-09
-8.98994e-07
2.63725e-07
-8.2563e-09
-3.74971e-09
-1.20992e-07
7.89495e-08
4.13384e-09
2.15166e-09
-5.59833e-08
3.76443e-08
-5.58089e-08
3.8741e-08
-3.24295e-09
1.38524e-10
-1.44552e-08
8.0186e-09
1.08973e-05
-1.21017e-05
1.20442e-06
-2.64808e-06
4.03108e-06
1.12682e-05
-1.26512e-05
-5.3917e-06
6.76003e-06
1.11107e-05
-1.24791e-05
-8.1449e-06
9.54944e-06
1.14245e-05
-1.2829e-05
-1.09767e-05
1.24303e-05
1.18456e-05
-1.32993e-05
-1.39143e-05
1.54326e-05
1.23964e-05
-1.39147e-05
-1.69896e-05
1.85899e-05
1.30957e-05
-1.4696e-05
-2.02384e-05
2.19405e-05
1.39628e-05
-1.56648e-05
-2.37018e-05
2.55289e-05
1.50219e-05
-1.6849e-05
-2.74286e-05
2.94086e-05
1.63005e-05
-1.82805e-05
-3.14779e-05
3.36444e-05
1.7832e-05
-1.99986e-05
-3.5919e-05
3.83221e-05
1.9639e-05
-2.20421e-05
-4.08693e-05
4.35456e-05
2.17835e-05
-2.44597e-05
-4.63497e-05
4.93853e-05
2.3709e-05
-2.67446e-05
-5.28285e-05
5.67679e-05
2.73863e-05
-3.13276e-05
-6.11435e-05
6.50386e-05
2.95636e-05
-3.38718e-05
-5.54887e-05
1.64565e-05
2.12463e-05
-1.40127e-05
-3.01756e-06
1.09425e-06
1.42363e-06
-5.68266e-07
-4.83202e-07
2.21931e-07
3.78445e-09
5.97437e-09
-9.13689e-08
3.32306e-08
2.94008e-09
3.85163e-09
-1.13558e-08
5.151e-09
-3.26152e-09
2.52113e-09
-2.69318e-09
1.71919e-09
-1.97773e-08
9.89891e-09
-2.70188e-10
2.92445e-11
-3.06524e-09
1.23245e-09
1.33026e-05
-1.44995e-05
1.1969e-06
-2.62126e-06
3.98543e-06
1.40252e-05
-1.53893e-05
-5.32974e-06
6.68217e-06
1.38398e-05
-1.51923e-05
-8.05054e-06
9.43756e-06
1.42252e-05
-1.56122e-05
-1.08463e-05
1.22803e-05
1.47434e-05
-1.61775e-05
-1.37435e-05
1.52398e-05
1.54224e-05
-1.69187e-05
-1.67734e-05
1.83488e-05
1.62841e-05
-1.78594e-05
-1.99708e-05
2.16447e-05
1.73528e-05
-1.90268e-05
-2.33763e-05
2.51722e-05
1.86603e-05
-2.04563e-05
-2.70397e-05
2.89866e-05
2.02432e-05
-2.21902e-05
-3.1023e-05
3.31574e-05
2.2148e-05
-2.42823e-05
-3.54031e-05
3.77837e-05
2.44331e-05
-2.68136e-05
-4.0311e-05
4.2972e-05
2.71275e-05
-2.97886e-05
-4.57986e-05
4.89325e-05
2.98343e-05
-3.29682e-05
-5.25389e-05
5.66865e-05
3.53811e-05
-3.95287e-05
-6.10339e-05
4.99386e-05
3.75364e-05
-4.10479e-05
-9.82744e-06
2.11196e-06
6.77735e-06
-3.47441e-06
-6.5293e-07
2.15637e-07
1.47803e-07
5.95465e-09
-8.17368e-08
3.02444e-08
-1.24745e-08
1.19204e-08
-1.06756e-08
3.5853e-09
-4.42359e-09
3.05512e-09
-1.14602e-09
4.56844e-10
-1.5795e-09
8.96886e-10
-2.22713e-10
2.11832e-10
-4.83298e-09
2.45985e-09
-7.48397e-11
9.62696e-12
-4.79848e-10
3.35167e-10
1.56925e-05
-1.6882e-05
1.1895e-06
-2.59094e-06
3.93438e-06
1.67434e-05
-1.80868e-05
-5.26042e-06
6.59523e-06
1.65359e-05
-1.78707e-05
-7.94561e-06
9.314e-06
1.69899e-05
-1.83583e-05
-1.07034e-05
1.21174e-05
1.76013e-05
-1.90152e-05
-1.35596e-05
1.50341e-05
1.84038e-05
-1.98782e-05
-1.65448e-05
1.80964e-05
1.94226e-05
-2.09741e-05
-1.96936e-05
2.13417e-05
2.06875e-05
-2.23356e-05
-2.30466e-05
2.48148e-05
2.22383e-05
-2.40065e-05
-2.66534e-05
2.85706e-05
2.41227e-05
-2.60399e-05
-3.05761e-05
3.26784e-05
2.64024e-05
-2.85046e-05
-3.4892e-05
3.72399e-05
2.91815e-05
-3.15294e-05
-3.97269e-05
4.23462e-05
3.24358e-05
-3.50551e-05
-4.51601e-05
4.83205e-05
3.61247e-05
-3.92852e-05
-5.19911e-05
5.62327e-05
4.37547e-05
-4.79974e-05
-5.06393e-05
1.2097e-05
3.95064e-05
-2.85843e-05
-2.03085e-06
5.38401e-07
2.06301e-06
-1.1684e-06
-1.33122e-07
4.10903e-08
-1.94751e-08
2.35475e-08
-1.26547e-08
3.96052e-09
-8.94501e-09
5.759e-09
-1.29548e-09
4.52599e-10
-1.77942e-09
9.39268e-10
-1.64305e-10
8.62247e-11
-4.57994e-10
2.42025e-10
-7.89196e-11
9.20467e-11
-1.03078e-09
4.80459e-10
-3.07863e-11
4.92509e-12
-1.45417e-10
1.2066e-10
1.80693e-05
-1.92549e-05
1.18562e-06
-2.5586e-06
3.87845e-06
1.9419e-05
-2.07388e-05
-5.18503e-06
6.50132e-06
1.91965e-05
-2.05128e-05
-7.83286e-06
9.18192e-06
1.97173e-05
-2.10664e-05
-1.05514e-05
1.19446e-05
2.04192e-05
-2.18125e-05
-1.33651e-05
1.48167e-05
2.13417e-05
-2.27933e-05
-1.63032e-05
1.78291e-05
2.25135e-05
-2.40394e-05
-1.93988e-05
2.10173e-05
2.39701e-05
-2.55886e-05
-2.26901e-05
2.44233e-05
2.57587e-05
-2.74919e-05
-2.62234e-05
2.80982e-05
2.79378e-05
-2.98125e-05
-3.00567e-05
3.2107e-05
3.05833e-05
-3.26335e-05
-3.42653e-05
3.65513e-05
3.3849e-05
-3.6135e-05
-3.89558e-05
4.14835e-05
3.76332e-05
-4.01609e-05
-4.42405e-05
4.73741e-05
4.24384e-05
-4.5572e-05
-5.09773e-05
5.29941e-05
5.19649e-05
-5.40094e-05
-2.05251e-05
2.49358e-06
1.51188e-05
-8.01016e-06
-6.7636e-07
1.07275e-07
5.83881e-07
-2.21178e-07
-2.48721e-08
5.85478e-09
-2.07905e-08
1.56233e-08
-1.5593e-09
4.99749e-10
-3.22746e-09
1.59107e-09
-1.84539e-10
7.56561e-11
-4.33459e-10
1.77177e-10
-3.36875e-11
2.33839e-11
-8.80454e-11
4.265e-11
-2.60304e-11
3.21772e-11
-1.70814e-10
7.62805e-11
-1.07134e-11
2.14526e-12
-3.26839e-11
2.67917e-11
3.14732e-42
-1.07897e-41
3.64628e-42
-8.85257e-41
1.83564e-40
-1.48019e-39
-1.05761e-41
1.67268e-42
-2.42973e-42
-3.4752e-44
7.66876e-45
-4.75251e-45
-5.66494e-47
1.65659e-47
-3.256e-48
-5.10686e-50
1.99092e-50
3.96427e-53
-3.47611e-53
1.6898e-53
4.43747e-55
-1.90015e-56
1.03951e-56
4.19537e-58
-7.25046e-60
4.02206e-60
2.35721e-61
-2.49319e-63
1.11425e-63
9.63843e-65
-9.51814e-67
4.49863e-67
3.40716e-68
-2.34865e-70
1.23828e-70
1.13408e-71
-4.09092e-74
2.20234e-74
2.47561e-75
-5.05361e-78
2.6123e-78
3.67007e-79
-4.52848e-82
2.17839e-82
3.74338e-83
-2.62429e-86
1.29776e-86
2.56738e-87
-8.10082e-91
3.95342e-91
1.08319e-91
-9.24088e-96
3.99004e-96
2.01487e-96
-2.93709e-101
1.20572e-101
8.07242e-102
1.16078e-38
-1.35879e-37
3.12165e-38
-1.87058e-36
3.29241e-36
7.82035e-37
-7.26396e-36
-2.77122e-37
2.27843e-38
4.15407e-39
-1.10445e-37
-7.88848e-40
1.26935e-40
6.38393e-42
-2.28274e-40
-1.59413e-42
3.95509e-43
2.37058e-45
-1.74456e-43
-1.96378e-45
6.35078e-46
2.30198e-51
3.85943e-49
-1.98823e-48
8.44935e-49
-7.87942e-52
1.27531e-49
-1.72981e-51
8.50931e-52
-1.08591e-54
1.95508e-52
-1.06093e-54
5.64536e-55
-8.05979e-58
1.68447e-55
-4.51597e-58
2.23606e-58
-3.66581e-61
9.10064e-59
-1.88754e-61
9.13153e-62
-1.63234e-64
3.97887e-62
-6.28513e-65
3.09854e-65
-7.65172e-68
1.54647e-65
-1.45767e-68
7.25192e-69
-1.87871e-71
4.28575e-69
-2.24774e-72
1.10148e-72
-3.2068e-75
7.78268e-73
-2.21057e-76
1.03113e-76
-3.64472e-79
8.97836e-77
-1.45507e-80
6.33703e-81
-3.0541e-83
6.85349e-81
-5.95045e-85
2.29803e-85
-1.64788e-87
3.21965e-85
-9.86014e-90
3.04181e-90
-3.07828e-92
6.4408e-90
-3.64522e-95
5.52184e-96
-1.2158e-97
3.07335e-95
6.36004e-35
-5.66945e-34
6.81418e-35
-4.62851e-33
8.30782e-33
2.69579e-33
-2.98265e-32
-6.25608e-34
3.67171e-35
1.15415e-35
-4.04428e-34
-1.7907e-36
1.66896e-37
2.34637e-38
-7.86715e-37
-3.86406e-39
6.71848e-40
1.72408e-41
-6.21335e-40
-5.24867e-42
1.43549e-42
-2.70564e-46
3.38153e-44
-5.49372e-45
2.00558e-45
-1.03777e-47
6.05462e-46
-5.35563e-48
2.34293e-48
-1.62271e-50
9.90255e-49
-3.73103e-51
1.83151e-51
-1.43425e-53
9.55146e-52
-1.67151e-54
7.8031e-55
-7.53431e-57
5.44159e-55
-6.73171e-58
2.95272e-58
-3.29728e-60
2.42996e-58
-2.29225e-61
9.96509e-62
-1.43461e-63
9.27139e-62
-5.56823e-65
2.45271e-65
-3.85954e-67
2.51615e-65
-9.31212e-69
3.92451e-69
-6.85195e-71
4.54873e-69
-9.72421e-73
3.73974e-73
-7.87174e-75
5.24121e-73
-6.35418e-77
2.08922e-77
-6.0248e-79
3.82307e-77
-2.5976e-81
7.19814e-82
-2.97389e-83
1.75775e-81
-4.7592e-86
1.03259e-86
-6.15748e-88
3.66669e-86
-2.03326e-91
1.96948e-92
-2.9338e-93
1.8688e-91
8.25505e-32
-1.27018e-30
1.61245e-32
-3.70713e-30
7.30723e-30
2.45969e-30
-3.87897e-29
-4.83091e-31
2.46609e-32
1.58467e-32
-4.28493e-31
-1.35585e-33
9.53484e-35
2.9816e-35
-7.62879e-34
-3.02757e-36
3.31315e-37
2.25925e-38
-5.82371e-37
-4.58926e-39
9.55436e-40
-2.2279e-42
1.01206e-40
-5.33015e-42
1.71464e-42
-2.48939e-44
8.29161e-43
-5.37712e-45
2.11453e-45
-4.0583e-47
1.38837e-45
-4.19378e-48
1.88328e-48
-4.04271e-50
1.46273e-48
-2.00372e-51
8.67384e-52
-2.32726e-53
8.71489e-52
-8.32889e-55
3.29175e-55
-1.05779e-56
3.9411e-55
-2.87802e-58
1.09445e-58
-4.09974e-60
1.45007e-58
-7.53078e-62
2.77294e-62
-1.12371e-63
4.07443e-62
-1.30719e-65
4.61221e-66
-2.07984e-67
7.5624e-66
-1.42961e-69
4.70468e-70
-2.45413e-71
8.8664e-70
-9.28832e-74
2.61084e-74
-1.8077e-75
6.31593e-74
-3.63697e-78
8.38374e-79
-8.17349e-80
2.73328e-78
-6.52309e-83
1.11253e-83
-1.61769e-84
5.47539e-83
-3.00758e-88
2.2573e-89
-8.21682e-90
2.89612e-88
6.61742e-29
-1.90929e-27
-1.00105e-26
-1.01025e-27
2.75149e-27
1.01083e-27
-2.02538e-26
-1.62331e-28
8.12548e-30
9.78577e-30
-1.72076e-28
-4.6428e-31
2.67681e-32
1.69501e-32
-2.87063e-31
-1.0438e-33
8.48285e-35
1.24638e-35
-2.05218e-34
-1.6619e-36
2.35471e-37
-3.2664e-39
8.25211e-38
-2.2141e-39
5.99758e-40
-2.11992e-41
4.47785e-40
-2.39296e-42
8.87643e-43
-3.57976e-44
7.80735e-43
-1.91537e-45
7.99506e-46
-3.84215e-47
8.49181e-46
-9.91479e-49
3.9611e-49
-2.27371e-50
4.9192e-49
-4.12154e-52
1.4877e-52
-1.02425e-53
2.23333e-52
-1.35764e-55
4.60575e-56
-3.6828e-57
7.76014e-56
-3.63297e-59
1.21727e-59
-1.03545e-60
2.19878e-59
-6.09724e-63
1.9355e-63
-1.87645e-64
3.92933e-63
-6.42579e-67
1.85652e-67
-2.13913e-68
4.41187e-67
-4.32638e-71
1.05918e-71
-1.5261e-72
3.22567e-71
-1.70004e-75
3.40934e-76
-6.61465e-77
1.38266e-75
-2.99809e-80
4.36093e-81
-1.29874e-81
2.68625e-80
-1.38105e-85
8.56756e-87
-6.72158e-87
1.3918e-85
2.69497e-26
4.30224e-26
-3.89799e-24
-4.19118e-26
4.13508e-25
3.55813e-25
-4.8496e-24
-2.56508e-26
1.34045e-27
2.57138e-27
-3.09388e-26
-7.62711e-29
3.98731e-30
4.1002e-30
-4.68733e-29
-1.78984e-31
1.18944e-32
2.81493e-33
-3.05777e-32
-2.92409e-34
3.33908e-35
-1.63038e-36
2.63414e-35
-4.22759e-37
8.47858e-38
-7.5994e-39
1.07746e-37
-5.19631e-40
1.84638e-40
-1.35754e-41
1.977e-40
-4.2301e-43
1.67522e-43
-1.47848e-44
2.16655e-43
-2.2152e-46
8.09809e-47
-8.58004e-48
1.22543e-46
-9.73003e-50
3.38516e-50
-3.9303e-51
5.75262e-50
-2.97692e-53
9.09643e-54
-1.30271e-54
1.88513e-53
-8.05067e-57
2.49103e-57
-3.67951e-58
5.31806e-57
-1.33097e-60
3.90591e-61
-6.4727e-62
9.30231e-61
-1.35728e-64
3.45982e-65
-7.12259e-66
1.0165e-64
-9.51961e-69
2.11593e-69
-5.32939e-70
7.64639e-69
-3.7004e-73
6.67953e-74
-2.23273e-74
3.21785e-73
-6.37737e-78
8.12919e-79
-4.23357e-79
6.06619e-78
-2.99093e-83
1.59318e-84
-2.187e-84
3.16477e-83
-7.44957e-25
-5.15618e-23
1.12382e-23
-3.8997e-23
3.4886e-23
5.61033e-23
-5.38238e-22
-2.24121e-24
1.11846e-25
3.21024e-25
-2.59828e-24
-6.0764e-27
3.18079e-28
4.46788e-28
-3.30255e-27
-1.46327e-29
8.07359e-31
2.65222e-31
-1.72668e-30
-2.59318e-32
2.96992e-33
-3.43091e-34
3.60743e-33
-3.8279e-35
6.46029e-36
-1.25006e-36
1.19144e-35
-5.02353e-38
1.64269e-38
-2.32334e-39
2.21432e-38
-4.512e-41
1.72835e-41
-2.62657e-42
2.5284e-41
-2.28976e-44
7.77107e-45
-1.48389e-45
1.40272e-44
-1.04113e-47
3.44879e-48
-6.99872e-49
6.70014e-48
-3.26796e-51
9.66663e-52
-2.27566e-52
2.24054e-51
-8.31458e-55
2.40377e-55
-6.21494e-56
5.97571e-55
-1.37808e-58
3.78717e-59
-1.08848e-59
1.04036e-58
-1.42377e-62
3.41207e-63
-1.20023e-63
1.14721e-62
-9.83086e-67
2.02932e-67
-8.92829e-68
8.45174e-67
-3.83379e-71
6.44547e-72
-3.70144e-72
3.53727e-71
-6.48122e-76
7.57225e-77
-6.81419e-77
6.52265e-76
-2.99219e-81
1.40196e-82
-3.51248e-82
3.31106e-81
-2.16861e-19
2.05844e-20
1.46933e-19
-1.25792e-20
1.69894e-21
4.7864e-21
-1.74449e-20
-7.32074e-23
3.74918e-24
1.62864e-23
-6.29838e-23
-2.01817e-25
1.06508e-26
1.9023e-26
-8.16964e-26
-4.92694e-28
2.75333e-29
7.6738e-30
-2.10332e-29
-9.52431e-31
1.16021e-31
-2.93607e-32
1.83156e-31
-1.42907e-33
3.25895e-34
-8.90328e-35
5.16421e-34
-1.78648e-36
5.71309e-37
-1.64383e-37
9.26337e-37
-1.54437e-39
5.95813e-40
-1.87459e-40
9.36936e-40
-8.60557e-43
2.93969e-43
-1.06031e-43
5.72741e-43
-3.83259e-46
1.26722e-46
-4.9578e-47
2.68308e-46
-1.2597e-49
3.81368e-50
-1.67925e-50
9.41651e-50
-3.08198e-53
8.8814e-54
-4.39027e-54
2.4443e-53
-4.95847e-57
1.34705e-57
-7.64025e-58
4.14905e-57
-5.26672e-61
1.25581e-61
-8.59189e-62
4.72774e-61
-3.69445e-65
7.53009e-66
-6.23199e-66
3.58121e-65
-1.44216e-69
2.37865e-70
-2.56259e-70
1.51392e-69
-2.45354e-74
2.78783e-75
-4.64997e-75
2.85601e-74
-1.1272e-79
5.1971e-81
-2.31975e-80
1.48351e-79
2.17458e-05
-2.42095e-05
2.46369e-06
-5.33851e-06
8.06639e-06
2.20461e-05
-2.47739e-05
-1.07791e-05
1.35159e-05
2.18184e-05
-2.45552e-05
-1.62826e-05
1.90836e-05
2.24041e-05
-2.52051e-05
-2.19252e-05
2.48138e-05
2.31934e-05
-2.6082e-05
-2.77565e-05
3.07603e-05
2.42311e-05
-2.72349e-05
-3.38331e-05
3.69828e-05
2.55495e-05
-2.86992e-05
-4.02182e-05
4.35487e-05
2.71887e-05
-3.05191e-05
-4.69846e-05
5.05373e-05
2.9203e-05
-3.27557e-05
-5.42197e-05
5.8046e-05
3.16606e-05
-3.54869e-05
-6.20331e-05
6.6195e-05
3.46511e-05
-3.88131e-05
-7.05697e-05
7.51848e-05
3.83818e-05
-4.29969e-05
-7.99927e-05
8.50296e-05
4.2633e-05
-4.767e-05
-9.06367e-05
9.7288e-05
4.86631e-05
-5.53141e-05
-0.000103912
6.81394e-05
5.19264e-05
-5.65435e-05
-6.01152e-06
1.57387e-06
5.13925e-06
-2.31998e-06
-2.04595e-07
1.66601e-08
4.52635e-08
2.97025e-08
-8.98449e-10
3.60596e-10
-1.03005e-08
2.9215e-09
-1.83136e-10
8.05736e-11
-7.47467e-10
1.85025e-10
-3.53139e-11
1.63768e-11
-6.042e-11
2.75062e-11
-8.35074e-12
7.13844e-12
-1.08099e-11
4.74521e-12
-8.53547e-12
1.13571e-11
-2.35192e-11
9.33091e-12
-5.1445e-12
1.73461e-12
-4.91797e-12
3.93162e-12
2.66397e-05
-2.90296e-05
2.38992e-06
-5.1124e-06
7.69951e-06
2.74353e-05
-3.00224e-05
-1.02849e-05
1.28941e-05
2.72309e-05
-2.98401e-05
-1.55289e-05
1.81925e-05
2.79404e-05
-3.0604e-05
-2.08904e-05
2.36283e-05
2.88983e-05
-3.16362e-05
-2.6412e-05
2.92472e-05
3.01578e-05
-3.2993e-05
-3.21402e-05
3.50973e-05
3.17563e-05
-3.47135e-05
-3.81257e-05
4.12323e-05
3.3742e-05
-3.68486e-05
-4.44249e-05
4.77124e-05
3.61812e-05
-3.94686e-05
-5.11035e-05
5.46084e-05
3.91596e-05
-4.26645e-05
-5.82386e-05
6.20017e-05
4.27853e-05
-4.65484e-05
-6.59308e-05
7.00181e-05
4.73626e-05
-5.14499e-05
-7.42083e-05
7.86318e-05
5.24183e-05
-5.68419e-05
-8.37083e-05
8.92867e-05
6.16059e-05
-6.7186e-05
-5.97122e-05
4.68669e-06
3.56544e-05
-1.34327e-05
-1.00815e-06
6.84593e-08
8.6942e-07
-1.79712e-07
-7.63458e-10
-6.254e-10
-1.87878e-08
8.16255e-09
6.5621e-11
1.65016e-11
-1.02882e-09
3.0118e-10
-1.19995e-11
5.5574e-12
-5.70774e-11
1.86346e-11
-2.30057e-12
1.16401e-12
-4.24506e-12
2.23287e-12
-6.42952e-13
5.88651e-13
-7.31673e-13
3.37404e-13
-6.94595e-13
8.63179e-13
-1.2408e-12
5.99022e-13
-4.89133e-13
2.66322e-13
-1.70842e-13
2.18395e-13
3.13739e-05
-3.36669e-05
2.29294e-06
-4.84607e-06
7.27181e-06
3.25307e-05
-3.49564e-05
-9.7102e-06
1.21713e-05
3.23776e-05
-3.48386e-05
-1.46525e-05
1.71568e-05
3.31903e-05
-3.56946e-05
-1.96888e-05
2.2253e-05
3.42897e-05
-3.6854e-05
-2.48539e-05
2.74957e-05
3.57341e-05
-3.8376e-05
-3.0183e-05
3.29204e-05
3.75636e-05
-4.0301e-05
-3.57125e-05
3.8564e-05
3.98308e-05
-4.26823e-05
-4.14797e-05
4.44648e-05
4.26083e-05
-4.55934e-05
-4.75239e-05
5.06619e-05
4.59899e-05
-4.91279e-05
-5.38839e-05
5.71908e-05
5.00879e-05
-5.33948e-05
-6.06061e-05
6.4087e-05
5.52392e-05
-5.87202e-05
-6.7594e-05
7.13848e-05
6.09392e-05
-6.473e-05
-7.59064e-05
6.38023e-05
6.92334e-05
-6.69351e-05
-4.78211e-06
8.59655e-07
5.47243e-06
-2.49558e-06
-3.93482e-08
-4.34596e-09
-1.59152e-08
2.66685e-08
9.07125e-10
-1.076e-10
-2.8033e-09
8.75902e-10
9.653e-12
6.80797e-13
-8.43457e-11
2.36184e-11
-7.38931e-13
3.76445e-13
-4.06097e-12
1.62219e-12
-1.55097e-13
8.73775e-14
-3.14482e-13
1.69162e-13
-4.85726e-14
3.68838e-14
-6.17752e-14
3.62318e-14
-3.16667e-14
2.89432e-14
-3.2779e-14
1.75192e-14
-2.21733e-14
1.62326e-14
-2.16094e-14
8.19704e-15
3.59035e-05
-3.80787e-05
2.17512e-06
-4.54272e-06
6.79476e-06
3.72966e-05
-3.95487e-05
-9.07056e-06
1.13662e-05
3.72188e-05
-3.95144e-05
-1.36767e-05
1.60044e-05
3.81124e-05
-4.04401e-05
-1.83532e-05
2.07262e-05
3.93244e-05
-4.16974e-05
-2.31265e-05
2.5557e-05
4.09139e-05
-4.33443e-05
-2.80204e-05
3.05194e-05
4.29209e-05
-4.54199e-05
-3.30564e-05
3.56338e-05
4.53983e-05
-4.79756e-05
-3.82532e-05
4.09164e-05
4.84188e-05
-5.1082e-05
-4.36241e-05
4.63761e-05
5.20737e-05
-5.48257e-05
-4.91717e-05
5.20057e-05
5.6465e-05
-5.92989e-05
-5.48919e-05
5.77566e-05
6.18898e-05
-6.47544e-05
-6.06042e-05
6.38327e-05
6.82248e-05
-7.14533e-05
-6.59835e-05
1.33589e-05
6.59695e-05
-5.05956e-05
-1.04292e-06
4.96809e-08
1.31116e-06
-5.03091e-07
6.97822e-09
-1.01451e-09
-1.57416e-08
6.45084e-09
1.04237e-10
-1.07334e-11
-2.60271e-10
7.58133e-11
9.1373e-13
5.26606e-14
-6.28833e-12
1.84623e-12
-5.08426e-14
3.06962e-14
-2.93921e-13
1.47059e-13
-1.78841e-14
1.29603e-14
-4.71953e-14
2.63731e-14
-7.57667e-15
4.90812e-15
-1.72012e-14
7.67943e-15
-3.11685e-15
2.04325e-15
-6.31154e-15
2.00067e-15
-1.1665e-15
6.21532e-16
-1.58676e-15
4.50398e-16
4.0188e-05
-4.22267e-05
2.03876e-06
-4.20969e-06
6.28e-06
4.17107e-05
-4.3781e-05
-8.38148e-06
1.04988e-05
4.17222e-05
-4.38396e-05
-1.26259e-05
1.47648e-05
4.26746e-05
-4.48136e-05
-1.69183e-05
1.90884e-05
4.39701e-05
-4.61402e-05
-2.12768e-05
2.34849e-05
4.56646e-05
-4.78727e-05
-2.57141e-05
2.79652e-05
4.77955e-05
-5.00466e-05
-3.02388e-05
3.25348e-05
5.04125e-05
-5.27085e-05
-3.48527e-05
3.71911e-05
5.35823e-05
-5.59208e-05
-3.95475e-05
4.19181e-05
5.73851e-05
-5.97557e-05
-4.42975e-05
4.66759e-05
6.19014e-05
-6.42799e-05
-4.90598e-05
5.1353e-05
6.73263e-05
-6.96195e-05
-5.36595e-05
5.64252e-05
7.44678e-05
-7.72335e-05
-3.5471e-05
1.38368e-06
3.06806e-05
-1.6171e-05
-1.69516e-07
-9.59169e-09
1.2954e-07
1.28364e-08
1.42785e-09
-1.10786e-10
-2.4147e-09
8.03008e-10
9.89851e-12
-9.03387e-13
-2.16574e-11
6.16446e-12
6.82058e-14
1.17079e-14
-4.61929e-13
1.95588e-13
-9.67699e-15
7.14998e-15
-4.05866e-14
2.29353e-14
-3.64737e-15
2.0518e-15
-1.1188e-14
4.59928e-15
-9.82134e-16
4.56228e-16
-2.4194e-15
7.57972e-16
-2.16335e-16
1.07432e-16
-4.53751e-16
1.18361e-16
-5.08875e-17
2.3047e-17
-8.19506e-17
1.83462e-17
4.41915e-05
-4.60785e-05
1.88698e-06
-3.85436e-06
5.73795e-06
4.57584e-05
-4.7642e-05
-7.65662e-06
9.58663e-06
4.5864e-05
-4.7794e-05
-1.15218e-05
1.34639e-05
4.68547e-05
-4.87968e-05
-1.54147e-05
1.7375e-05
4.82059e-05
-5.01662e-05
-1.93456e-05
2.13265e-05
4.99674e-05
-5.19483e-05
-2.33177e-05
2.5319e-05
5.21725e-05
-5.41737e-05
-2.73291e-05
2.93466e-05
5.48643e-05
-5.68818e-05
-3.13689e-05
3.33927e-05
5.80999e-05
-6.01238e-05
-3.54133e-05
3.74247e-05
6.19429e-05
-6.39543e-05
-3.94183e-05
4.13831e-05
6.64453e-05
-6.84101e-05
-4.33178e-05
4.51135e-05
7.16518e-05
-7.34475e-05
-4.69957e-05
4.85272e-05
7.96372e-05
-8.11687e-05
-8.41368e-06
4.7537e-07
7.06251e-06
-3.42926e-06
6.81352e-09
-2.66165e-09
-3.18134e-08
2.31639e-08
1.62194e-10
-1.07995e-11
-2.51422e-10
7.52713e-11
8.45268e-13
-5.84931e-14
-1.68987e-12
4.96895e-13
7.79317e-16
4.29158e-15
-4.67166e-14
2.73853e-14
-2.37522e-15
1.37139e-15
-9.80153e-15
4.48122e-15
-5.64563e-16
2.1537e-16
-1.64305e-15
5.78586e-16
-8.27611e-17
3.24421e-17
-2.15126e-16
6.20673e-17
-1.27174e-17
5.10433e-18
-2.77744e-17
6.85432e-18
-2.00938e-18
7.7424e-19
-3.54384e-18
7.59861e-19
4.78853e-05
-4.96089e-05
1.7236e-06
-3.48508e-06
5.18007e-06
4.94315e-05
-5.11265e-05
-6.91101e-06
8.64868e-06
4.96283e-05
-5.13659e-05
-1.03877e-05
1.21295e-05
5.0639e-05
-5.23807e-05
-1.38747e-05
1.56233e-05
5.20207e-05
-5.37694e-05
-1.73752e-05
1.91294e-05
5.38155e-05
-5.55698e-05
-2.08852e-05
2.2641e-05
5.60514e-05
-5.78072e-05
-2.43949e-05
2.61441e-05
5.87635e-05
-6.05127e-05
-2.7885e-05
2.96134e-05
6.19972e-05
-6.37256e-05
-3.13233e-05
3.3008e-05
6.57979e-05
-6.74827e-05
-3.46579e-05
3.62636e-05
7.01887e-05
-7.17944e-05
-3.78179e-05
3.92261e-05
7.50353e-05
-7.64435e-05
-4.08376e-05
3.03241e-05
7.98768e-05
-8.07665e-05
-8.67893e-07
7.51026e-08
1.91269e-06
-1.27144e-06
6.90289e-09
-3.34711e-10
-1.21039e-08
5.18551e-09
1.51828e-11
-8.60924e-13
-2.1387e-11
5.8867e-12
6.05575e-14
-5.51204e-16
-1.27363e-13
5.17551e-14
-2.34223e-15
1.5954e-15
-1.42351e-14
8.00732e-15
-5.59566e-16
1.77284e-16
-1.91517e-15
8.54133e-16
-5.66324e-17
1.865e-17
-1.87232e-16
6.05495e-17
-6.12818e-18
2.02668e-18
-1.71621e-17
4.7306e-18
-6.70519e-19
2.24667e-19
-1.59142e-18
3.78842e-19
-7.49047e-20
2.47116e-20
-1.48612e-19
3.08043e-20
5.12481e-05
-5.28009e-05
1.55273e-06
-3.10851e-06
4.61531e-06
5.27271e-05
-5.42339e-05
-6.15625e-06
7.69996e-06
5.30064e-05
-5.45501e-05
-9.24185e-06
1.0783e-05
5.40217e-05
-5.55629e-05
-1.23232e-05
1.38618e-05
5.54124e-05
-5.6951e-05
-1.53977e-05
1.69298e-05
5.72121e-05
-5.87441e-05
-1.84563e-05
1.99753e-05
5.94431e-05
-6.0962e-05
-2.14841e-05
2.29795e-05
6.21328e-05
-6.36282e-05
-2.44575e-05
2.59137e-05
6.53146e-05
-6.67708e-05
-2.73417e-05
2.87352e-05
6.90171e-05
-7.04106e-05
-3.00839e-05
3.13815e-05
7.324e-05
-7.45376e-05
-3.26115e-05
3.37101e-05
7.76872e-05
-7.87858e-05
-3.50507e-05
1.38948e-05
7.58141e-05
-6.87117e-05
-4.3752e-07
-1.73916e-08
7.39705e-07
-3.28311e-07
1.34434e-09
-3.22451e-11
-1.81774e-09
5.0311e-10
1.11961e-12
-5.01324e-14
-1.5749e-12
4.41854e-13
5.9566e-16
1.04577e-15
-1.86186e-14
1.24161e-14
-6.05698e-16
2.94191e-16
-3.78406e-15
1.84513e-15
-8.58674e-17
2.08915e-17
-3.42304e-16
1.25517e-16
-5.25513e-18
1.42054e-18
-1.92848e-17
6.05247e-18
-3.97902e-19
1.13199e-19
-1.26301e-18
3.32801e-19
-3.22533e-20
9.23795e-21
-8.69465e-20
1.98132e-20
-2.63805e-21
7.51685e-22
-6.0509e-21
1.2052e-21
5.42663e-05
-5.56435e-05
1.3772e-06
-2.73073e-06
4.05117e-06
5.56472e-05
-5.69677e-05
-5.40264e-06
6.75336e-06
5.5997e-05
-5.73477e-05
-8.09993e-06
9.44281e-06
5.70044e-05
-5.83473e-05
-1.07812e-05
1.21139e-05
5.8386e-05
-5.97187e-05
-1.34395e-05
1.47562e-05
6.01675e-05
-6.14843e-05
-1.60621e-05
1.73548e-05
6.23664e-05
-6.36592e-05
-1.86317e-05
1.98894e-05
6.50027e-05
-6.62605e-05
-2.11243e-05
2.2332e-05
6.80998e-05
-6.93075e-05
-2.3507e-05
2.46438e-05
7.16715e-05
-7.28083e-05
-2.57328e-05
2.67707e-05
7.56993e-05
-7.67371e-05
-2.7731e-05
2.85926e-05
7.97554e-05
-8.0617e-05
-2.93237e-05
3.13122e-06
5.93872e-05
-4.81368e-05
-9.30148e-08
-5.66875e-09
1.00234e-07
-7.28183e-09
4.73336e-12
-8.50144e-13
-1.35354e-10
3.08763e-11
5.34767e-14
-1.36632e-15
-1.38735e-13
4.86788e-14
-5.89e-16
4.69039e-16
-8.00644e-15
5.24044e-15
-1.5058e-16
3.65021e-17
-8.66146e-16
4.0811e-16
-8.1332e-18
1.83762e-18
-4.29086e-17
1.42713e-17
-4.16047e-19
9.61782e-20
-1.8247e-18
5.29121e-19
-2.29105e-20
5.60014e-21
-8.54371e-20
2.14313e-20
-1.38496e-21
3.44433e-22
-4.39117e-21
9.56785e-22
-8.54006e-23
2.12173e-23
-2.31549e-22
4.41921e-23
5.69323e-05
-5.81325e-05
1.20018e-06
-2.35668e-06
3.49454e-06
5.81963e-05
-5.93342e-05
-4.65897e-06
5.81996e-06
5.86031e-05
-5.9764e-05
-6.97504e-06
8.12414e-06
5.95926e-05
-6.07417e-05
-9.26584e-06
1.03988e-05
6.09507e-05
-6.20837e-05
-1.15211e-05
1.26308e-05
6.26964e-05
-6.38062e-05
-1.37257e-05
1.48036e-05
6.48431e-05
-6.59209e-05
-1.58616e-05
1.68971e-05
6.74054e-05
-6.84409e-05
-1.79067e-05
1.88872e-05
7.03992e-05
-7.13797e-05
-1.98342e-05
2.07444e-05
7.38286e-05
-7.47387e-05
-2.16101e-05
2.24331e-05
7.76628e-05
-7.84857e-05
-2.31842e-05
2.38988e-05
8.13949e-05
-8.21095e-05
-1.88944e-05
3.149e-07
3.6338e-05
-2.64428e-05
-1.04234e-08
-5.31969e-10
-2.68207e-08
3.80208e-08
2.23409e-12
-4.64648e-15
-3.55735e-12
9.7928e-13
3.17927e-16
1.59927e-16
-1.56785e-14
7.8754e-15
-1.41337e-16
9.7814e-17
-2.93904e-15
1.54856e-15
-2.48681e-17
4.03905e-18
-1.82806e-16
7.42914e-17
-6.74804e-19
1.29459e-19
-4.69284e-18
1.52869e-18
-2.61169e-20
5.35877e-21
-1.4762e-19
3.99717e-20
-1.11994e-21
2.39115e-22
-5.20281e-21
1.22423e-21
-5.17842e-23
1.1295e-23
-2.02066e-22
4.16298e-23
-2.45381e-24
5.36179e-25
-8.11495e-24
1.47705e-24
5.92446e-05
-6.0269e-05
1.0244e-06
-1.99025e-06
2.95031e-06
6.03826e-05
-6.13427e-05
-3.93193e-06
4.90844e-06
6.08321e-05
-6.18086e-05
-5.87747e-06
6.83891e-06
6.17962e-05
-6.27576e-05
-7.79065e-06
8.73112e-06
6.31195e-05
-6.406e-05
-9.6582e-06
1.05698e-05
6.48158e-05
-6.57274e-05
-1.14636e-05
1.23373e-05
6.68955e-05
-6.77693e-05
-1.31884e-05
1.40144e-05
6.93703e-05
-7.01964e-05
-1.48129e-05
1.55817e-05
7.22528e-05
-7.30216e-05
-1.63184e-05
1.70217e-05
7.55439e-05
-7.62472e-05
-1.76875e-05
1.83227e-05
7.92127e-05
-7.98479e-05
-1.88963e-05
1.94899e-05
8.27591e-05
-8.33526e-05
-1.06556e-05
2.48288e-07
1.84881e-05
-1.21266e-05
1.43974e-08
-5.74579e-11
-2.6081e-08
1.17918e-08
3.95066e-13
-1.86879e-14
-1.48742e-12
1.1334e-12
1.62511e-16
4.79264e-18
-4.73952e-15
3.2085e-15
-2.03149e-17
8.70367e-18
-7.99988e-16
4.17296e-16
-1.80537e-18
2.97479e-19
-2.71964e-17
9.31292e-18
-4.62322e-20
7.58838e-21
-4.84194e-19
1.46315e-19
-1.31604e-21
2.37614e-22
-1.05156e-20
2.6826e-21
-4.41199e-23
8.37065e-24
-2.77872e-22
6.1003e-23
-1.6092e-24
3.11955e-25
-8.24208e-24
1.59218e-24
-6.01868e-26
1.17219e-26
-2.55107e-25
4.40971e-26
6.12058e-05
-6.20571e-05
8.5129e-07
-1.63487e-06
2.42208e-06
6.22156e-05
-6.30028e-05
-3.22775e-06
4.02526e-06
6.26947e-05
-6.34922e-05
-4.81608e-06
5.59631e-06
6.36275e-05
-6.44077e-05
-6.36658e-06
7.12235e-06
6.4907e-05
-6.56628e-05
-7.86362e-06
8.58589e-06
6.65431e-05
-6.72654e-05
-9.28881e-06
9.96786e-06
6.85443e-05
-6.92234e-05
-1.06224e-05
1.12483e-05
7.09212e-05
-7.15471e-05
-1.18452e-05
1.24104e-05
7.36878e-05
-7.42529e-05
-1.29443e-05
1.34473e-05
7.68503e-05
-7.73532e-05
-1.39194e-05
1.43734e-05
8.03927e-05
-8.08467e-05
-1.47791e-05
1.52564e-05
8.38915e-05
-8.43686e-05
-4.7987e-06
8.34577e-08
7.23115e-06
-3.69844e-06
2.65836e-09
-2.22267e-12
-3.17494e-09
5.21387e-10
5.65477e-14
-1.79287e-15
-2.02842e-13
1.30955e-14
1.29643e-16
-3.27545e-17