/*--------------------------------*- C++ -*----------------------------------*\
| =========                 |                                                 |
| \\      /  F ield         | OpenFOAM: The Open Source CFD Toolbox           |
|  \\    /   O peration     | Version:  v1912                                 |
|   \\  /    A nd           | Website:  www.openfoam.com                      |
|    \\/     M anipulation  |                                                 |
\*---------------------------------------------------------------------------*/
FoamFile
{
    version     2.0;
    format      ascii;
    class       volScalarField;
    location    "0.1";
    object      alpha.water;
}
// * * * * * * * * * * * * * * * * * * * * * * * * * * * * * * * * * * * * * //

dimensions      [0 0 0 0 0 0 0];


internalField   nonuniform List<scalar> 
9072
(
1
1
1
1
1
1
1
1
1
1
1
1
1
1
0.999999
0.99999
0.999978
0.996488
0.992235
0.503882
0.00992881
0.00038919
9.37925e-06
1
1
1
1
1
1
1
1
1
1
1
1
1
1
0.999999
0.999988
0.999473
0.998357
0.799999
0.412349
0.100201
0.00427552
0.000164577
1
1
1
1
1
1
1
1
1
1
1
1
1
1
0.999995
0.999864
0.997493
0.951469
0.454119
0.0294507
0.0326888
0.00875184
0.000127475
1
1
1
1
1
1
1
1
1
1
1
1
1
1
0.999991
0.999448
0.976703
0.406784
0.0332981
0.00996991
0.000948872
0.00169335
8.9297e-05
1
1
1
1
1
1
1
1
1
1
1
1
1
1
0.999993
0.998638
0.598705
0.0247705
0.00600679
0.00114879
0.000208232
0.000174963
2.41502e-05
1
1
1
1
1
1
1
1
1
1
1
1
1
1
1
0.95416
0.0615852
0.00738683
0.00125007
0.00020859
4.26229e-05
3.68911e-05
2.52738e-06
1
1
1
1
1
1
1
1
1
1
1
1
1
1
0.999996
0.560143
0.0139506
0.00207045
0.00028225
4.357e-05
9.05584e-06
7.73231e-06
5.57286e-07
1
1
1
1
1
1
1
1
1
1
1
1
1
1
0.99991
0.141579
0.00462066
0.00054126
6.3281e-05
9.39749e-06
1.70453e-06
1.31355e-06
1.60477e-07
1.1875e-37
1.63233e-35
1.32425e-37
3.63463e-40
4.88231e-43
3.51468e-46
1.94819e-49
9.28697e-53
3.86639e-56
1.79145e-59
6.50128e-63
1.44685e-66
2.49371e-70
3.3065e-74
3.08805e-78
1.64038e-82
4.33705e-87
4.53373e-92
1.30395e-97
2.28918e-33
7.66839e-32
4.09659e-33
1.00159e-35
1.53091e-38
1.47802e-41
1.12325e-44
7.36453e-48
3.61206e-51
1.58503e-54
6.68284e-58
1.90172e-61
3.57101e-65
4.47281e-69
3.71869e-73
1.83476e-77
5.22636e-82
4.90725e-87
4.11497e-93
9.40972e-30
3.3511e-28
1.13333e-29
2.73923e-32
4.26547e-35
4.2142e-38
3.25667e-41
2.2029e-44
1.04544e-47
3.98467e-51
1.55405e-54
4.28605e-58
7.04033e-62
9.67457e-66
8.9906e-70
5.51195e-74
1.64526e-78
1.34316e-83
-4.82888e-90
1.88243e-26
4.51465e-25
1.01841e-26
2.32983e-29
3.71985e-32
3.97145e-35
3.1734e-38
2.09015e-41
9.75425e-45
3.24103e-48
1.27248e-51
3.93514e-55
8.25234e-59
1.14478e-62
1.01831e-66
5.66069e-71
1.51005e-75
1.01478e-80
-3.04664e-86
1.55317e-22
2.34946e-22
3.73815e-24
8.3725e-27
1.3381e-29
1.53287e-32
1.33936e-35
8.27966e-39
3.37966e-42
1.35163e-45
5.31604e-49
1.64568e-52
3.28577e-56
4.31827e-60
3.79956e-64
1.99146e-68
4.38499e-73
7.05696e-79
-2.79173e-83
5.56385e-20
5.47943e-20
6.32579e-22
1.37797e-24
2.29257e-27
2.71396e-30
2.69818e-33
1.64091e-36
5.80506e-40
2.85133e-43
1.04526e-46
3.24649e-50
6.1928e-54
7.64829e-58
6.77291e-62
3.00604e-66
4.0085e-71
-7.44378e-76
-1.09179e-80
2.41416e-18
6.57267e-18
5.38796e-20
1.05106e-22
1.82759e-25
2.33135e-28
2.45621e-31
1.5462e-34
5.69054e-38
2.82053e-41
1.0375e-44
3.02192e-48
5.67087e-52
6.96118e-56
5.80928e-60
2.54814e-64
2.48851e-69
-1.06443e-73
-1.02004e-78
8.72828e-16
3.37614e-16
1.46952e-18
3.15353e-21
5.80593e-24
8.19453e-27
8.10238e-30
5.15756e-33
2.21007e-36
1.10654e-39
4.16329e-43
1.1386e-46
2.04454e-50
2.54546e-54
1.7782e-58
5.71415e-64
-5.04832e-67
-2.09403e-71
-1.71062e-76
1
1
1
1
1
1
1
1
1
1
1
1
1
1
0.938131
0.017128
0.00107807
8.37157e-05
6.8517e-06
5.98377e-07
9.90582e-08
7.73214e-08
2.55327e-08
1
1
1
1
1
1
1
1
1
1
1
1
1
1
0.266697
0.00252801
0.000118801
6.63347e-06
4.8421e-07
3.96497e-08
6.56289e-09
3.41593e-09
1.40048e-09
1
1
1
1
1
1
1
1
1
1
1
1
1
0.99993
0.0108116
0.000317467
1.13427e-05
5.2691e-07
3.32108e-08
3.02754e-09
7.40035e-10
3.25974e-10
1.73946e-10
1
1
1
1
1
1
1
1
1
1
1
1
1
0.655261
0.00208612
3.57107e-05
9.60394e-07
3.79766e-08
2.43042e-09
5.3268e-10
1.74542e-10
5.46361e-11
1.33655e-11
1
1
1
1
1
1
1
1
1
1
1
1
1
0.212241
0.000374396
3.63994e-06
7.42057e-08
2.61297e-09
4.52767e-10
1.16694e-10
2.28102e-11
3.91639e-12
6.87065e-13
1
1
1
1
1
1
1
1
1
1
1
1
1
0.0314158
4.72978e-05
3.49544e-07
5.43062e-09
4.70715e-10
1.0979e-10
1.68547e-11
1.99532e-12
2.43019e-13
3.01822e-14
1
1
1
1
1
1
1
1
1
1
1
1
0.997857
0.002213
3.399e-06
2.5717e-08
5.56349e-10
1.79097e-10
2.2583e-11
1.86486e-12
1.60483e-13
1.40997e-14
1.27163e-15
1
1
1
1
1
1
1
1
1
1
1
1
0.812569
0.000517603
2.07415e-07
1.98288e-09
1.97965e-10
4.73613e-11
3.75255e-12
1.94288e-13
1.18734e-14
7.75689e-16
5.17197e-17
1
1
1
1
1
1
1
1
1
1
1
1
0.563525
5.6375e-05
6.42576e-07
8.1078e-10
1.15102e-10
1.09365e-11
4.52125e-13
1.81939e-14
8.05549e-16
3.9262e-17
1.97119e-18
1
1
1
1
1
1
1
1
1
1
1
1
0.306752
-4.96912e-06
5.64986e-09
1.71923e-10
3.93003e-11
2.22082e-12
5.01355e-14
1.46157e-15
4.88e-17
1.79715e-18
6.84866e-20
1
1
1
1
1
1
1
1
1
1
1
1
0.145414
-4.15097e-07
2.5237e-08
7.2434e-11
1.10318e-11
3.10736e-13
5.21025e-15
1.04657e-16
2.58899e-18
7.25031e-20
2.1275e-21
1
1
1
1
1
1
1
1
1
1
1
0.999999
0.0478218
-1.03519e-08
8.93745e-10
2.63347e-11
2.82213e-12
3.56827e-14
4.46402e-16
6.5586e-18
1.18925e-19
2.53526e-21
5.81873e-23
0.999998
1
1
1
0.999999
0.999999
0.999999
0.999998
0.999998
0.999997
0.999995
0.999979
0.00482527
-7.6915e-10
4.85141e-11
1.21566e-11
4.54451e-13
3.6146e-15
3.10896e-17
3.38494e-19
4.5854e-21
7.4876e-23
1.35527e-24
0.999959
0.999991
0.99999
0.999988
0.999985
0.999982
0.999976
0.999967
0.999955
0.999938
0.999905
0.99965
8.4415e-06
6.88264e-10
3.25769e-11
4.67659e-12
5.44324e-14
2.92576e-16
1.73452e-18
1.37233e-20
1.41109e-22
1.7949e-24
2.59159e-26
0.998955
0.999771
0.999749
0.999714
0.999661
0.999583
0.999473
0.999324
0.999127
0.99886
0.998368
0.994283
2.03179e-07
1.18281e-10
3.12327e-11
1.31479e-12
6.32893e-15
1.90933e-17
7.63592e-20
4.40282e-22
3.43638e-24
3.39789e-26
3.9069e-28
0.817885
0.994404
0.993963
0.993254
0.992213
0.990757
0.986536
0.975304
0.955823
0.924477
0.858159
0.449191
7.49244e-05
-6.65469e-09
-1.7954e-12
3.56123e-13
7.02956e-16
1.03123e-18
2.64238e-21
1.12957e-23
6.84414e-26
5.31685e-28
4.81855e-30
-1.38079e-20
0.136352
0.121477
0.100522
0.0757206
0.0494026
0.0250149
0.00807404
-3.73996e-18
3.45418e-10
3.91694e-08
1.02076e-06
0.0192367
2.85083e-06
-8.57753e-10
8.66146e-14
6.08969e-17
4.21004e-20
7.06882e-23
2.30678e-25
1.10656e-27
6.80919e-30
4.98426e-32
-5.04532e-20
-2.59432e-18
-9.54607e-15
-3.66007e-12
-5.12838e-12
-1.14777e-10
-2.74269e-09
-1.26073e-08
-3.93186e-09
7.44774e-12
1.79056e-08
1.2629e-06
0.0173835
3.26951e-05
-2.73763e-11
1.36504e-14
3.10006e-18
1.15292e-21
1.40834e-24
3.62912e-27
1.39649e-29
6.90073e-32
4.16121e-34
-4.8487e-21
-1.9807e-20
-1.27548e-17
-8.11292e-15
-1.67735e-12
-1.19584e-10
-2.52774e-09
-9.49615e-09
-1.72342e-09
7.92391e-09
1.01115e-06
0.000193246
0.000540422
7.42381e-08
-1.69688e-12
5.87304e-16
7.1392e-20
1.95576e-23
1.93919e-26
4.09931e-29
1.28825e-31
5.31334e-34
2.60616e-36
-6.99857e-30
-5.48398e-27
-6.1681e-25
-2.51379e-24
0
-7.53193e-25
-1.77391e-21
-5.76827e-23
1.07495e-11
7.5005e-10
3.39949e-08
8.78586e-05
0.000238173
7.77723e-10
-1.09212e-13
4.77573e-18
4.91671e-22
1.67705e-25
1.52951e-28
2.78706e-31
7.67655e-34
2.7631e-36
1.28831e-38
-4.55561e-30
-8.54096e-27
-1.25791e-24
-3.41022e-23
-3.59069e-23
-2.26715e-24
2.04758e-18
3.05086e-16
2.79965e-14
-2.59288e-12
1.90211e-11
1.01485e-07
6.30504e-08
2.48478e-11
-6.72257e-18
2.34874e-20
1.39001e-25
-1.98805e-28
2.32446e-31
6.94135e-34
2.46682e-36
9.34796e-39
4.11119e-41
-4.60962e-33
-1.50356e-27
-2.52064e-25
-1.09333e-23
-1.055e-22
-4.0144e-24
2.11705e-20
3.08169e-18
4.45492e-17
3.27737e-14
-3.26579e-14
3.42509e-10
2.03038e-09
1.00807e-13
-2.16137e-17
4.41897e-23
1.40407e-27
-3.72476e-30
1.51948e-33
2.96186e-36
1.0015e-38
3.38815e-41
1.26572e-43
-5.38527e-37
-5.16433e-35
0
7.33117e-30
1.55521e-26
9.24601e-25
1.20093e-21
2.29699e-19
3.61996e-17
1.65882e-14
4.49344e-13
6.86152e-13
1.21725e-13
1.05234e-16
-2.52816e-17
-8.47575e-31
8.60772e-30
-2.12126e-32
6.67043e-36
1.32839e-38
3.61365e-41
1.04266e-43
3.62879e-46
-1.22769e-40
-8.48899e-36
-9.05321e-34
-4.96705e-36
-1.12438e-30
-2.12833e-27
3.64871e-26
8.20023e-24
9.67312e-22
3.28793e-18
5.94352e-16
2.44833e-15
1.13236e-15
-2.07763e-19
-1.89203e-18
-5.39755e-36
2.45349e-32
-4.96706e-35
1.81339e-38
2.97428e-41
7.72314e-44
2.18426e-46
7.61895e-49
-3.54257e-50
-1.05674e-42
-1.30295e-40
-4.78309e-40
-8.98144e-38
-8.82702e-35
-7.18697e-34
1.89016e-31
7.62079e-29
7.91068e-25
6.22879e-22
2.86322e-20
6.70051e-20
1.5862e-21
-1.72387e-20
-4.90001e-40
2.42262e-35
-6.60283e-38
1.71143e-41
2.91618e-44
9.74009e-47
3.08673e-49
1.31015e-51
-5.07198e-52
-5.00833e-48
-3.67667e-45
-9.52074e-43
-7.34346e-41
-1.55274e-41
-1.18356e-38
-2.08123e-40
-4.11733e-38
2.7769e-31
5.23799e-28
2.69329e-26
-1.60798e-25
-2.3593e-24
-7.97553e-24
-1.00937e-30
1.15225e-39
-1.99635e-40
9.83333e-45
2.94189e-47
9.04679e-50
3.89519e-52
1.53384e-54
-2.73932e-59
-2.88791e-51
-2.91642e-48
-1.12104e-45
-2.18128e-43
-2.47261e-41
-1.77081e-39
-8.44752e-38
-2.78924e-36
-6.58687e-35
-1.15401e-33
-1.57141e-32
-1.73791e-31
-1.53946e-30
-9.0595e-30
-3.71896e-33
2.74569e-57
-1.49895e-41
5.28148e-48
2.08574e-50
9.44845e-53
4.15923e-55
1.61161e-57
-4.09301e-69
-3.58482e-59
-4.5499e-56
-2.2103e-53
-5.48296e-51
-8.00436e-49
-7.47147e-47
-4.69185e-45
-2.0442e-43
-6.28585e-42
-1.36738e-40
-2.06754e-39
-2.06412e-38
-1.21259e-37
-3.41609e-37
-4.61416e-37
-2.86738e-44
-5.48061e-44
1.74132e-51
9.93538e-54
5.73822e-56
2.99218e-58
1.23345e-60
-1.01133e-82
-1.02713e-69
-1.63635e-66
-1.00443e-63
-3.17378e-61
-5.96521e-59
-7.25482e-57
-6.02445e-55
-3.53708e-53
-1.49878e-51
-4.6149e-50
-1.02124e-48
-1.56039e-47
-1.49202e-46
-7.02673e-46
-7.18994e-46
-8.2676e-47
-8.51229e-47
2.90454e-55
2.92897e-57
-6.35453e-59
1.41156e-61
8.00657e-64
-5.87287e-88
-2.10372e-80
-4.69946e-77
-4.12841e-74
-1.90982e-71
-5.39648e-69
-1.01993e-66
-1.37034e-64
-1.36726e-62
-1.04742e-60
-6.31825e-59
-3.05459e-57
-1.19567e-55
-3.78781e-54
-9.58432e-53
-1.88221e-51
-2.75784e-50
-5.01029e-50
-8.32274e-67
4.27418e-61
-2.35065e-62
4.42524e-65
3.26663e-67
-5.71657e-96
-5.22456e-88
-1.62479e-84
-1.99314e-81
-1.297e-78
-5.21231e-76
-1.41945e-73
-2.79206e-71
-4.15907e-69
-4.86965e-67
-4.61383e-65
-3.61727e-63
-2.38206e-61
-1.32251e-59
-6.11121e-58
-2.24373e-56
-5.77429e-55
-7.53187e-54
-2.24857e-71
3.37801e-65
-4.04476e-66
9.67098e-69
8.8417e-71
-3.40088e-104
-5.71406e-96
-2.413e-92
-4.02916e-89
-3.57577e-86
-1.96485e-83
-7.35119e-81
-2.00005e-78
-4.15778e-76
-6.86665e-74
-9.29368e-72
-1.05637e-69
-1.02696e-67
-8.6188e-66
-6.2219e-64
-3.74898e-62
-1.71193e-60
-3.95475e-59
-1.0346e-76
1.46974e-69
-9.07044e-71
1.86291e-72
-1.48489e-74
-6.44736e-114
-1.51246e-105
-8.06198e-102
-1.69504e-98
-1.89652e-95
-1.31742e-92
-6.24916e-90
-2.16315e-87
-5.7418e-85
-1.21499e-82
-2.11364e-80
-3.09789e-78
-3.89881e-76
-4.25957e-74
-4.04437e-72
-3.28384e-70
-2.16699e-68
-1.00424e-66
7.51028e-73
-2.14368e-87
-4.44608e-83
2.7326e-76
-1.31929e-77
-1.02003e-127
-1.25244e-114
-7.90437e-111
-1.94388e-107
-2.50724e-104
-1.97465e-101
-1.04264e-98
-3.93093e-96
-1.10635e-93
-2.40019e-91
-4.10225e-89
-5.5913e-87
-6.08319e-85
-5.20315e-83
-3.36608e-81
-1.51315e-79
-3.87082e-78
-2.62182e-77
1.98585e-76
-9.3759e-77
2.84805e-80
2.24109e-80
-1.61816e-81
-1.15664e-136
-8.92092e-127
-5.60037e-123
-1.30943e-119
-1.52164e-116
-1.00753e-113
-4.06878e-111
-1.0246e-108
-1.56497e-106
-1.28904e-104
-3.7902e-103
4.18272e-104
3.08202e-102
2.63403e-97
3.65863e-94
2.71815e-91
2.28346e-88
6.82025e-85
2.02492e-82
-1.02921e-79
-3.11401e-80
1.2201e-84
7.44711e-86
-9.90475e-143
-2.63721e-134
-3.12749e-130
-1.44078e-126
-3.46791e-123
-5.07617e-120
-4.95578e-117
-3.42874e-114
-1.75081e-111
-6.77373e-109
-2.01125e-106
-4.57338e-104
-7.79215e-102
-9.45035e-100
-8.00169e-98
-1.20292e-95
-7.95372e-93
-6.10012e-90
-4.54661e-87
-3.22614e-84
-1.87487e-83
4.59151e-89
4.91068e-90
-1.19304e-151
-6.89533e-142
-1.27572e-137
-9.2693e-134
-3.56678e-130
-8.48111e-127
-1.37002e-123
-1.6037e-120
-1.42547e-117
-9.96589e-115
-5.62502e-112
-2.61112e-109
-1.00869e-106
-3.2577e-104
-8.8186e-102
-2.04157e-99
-4.54886e-97
-1.33609e-94
-6.01026e-92
-3.38545e-89
-3.8305e-87
1.23321e-93
2.05262e-94
-2.43199e-162
-7.92457e-153
-2.38331e-148
-3.05277e-144
-2.23812e-140
-1.08382e-136
-3.76128e-133
-9.87177e-130
-2.04075e-126
-3.43777e-123
-4.85953e-120
-5.91435e-117
-6.3408e-114
-6.1026e-111
-5.35643e-108
-4.33449e-105
-3.25187e-102
-2.26042e-99
-1.44337e-96
-8.35561e-94
-2.76755e-91
8.48961e-98
2.4219e-98
-3.79839e-172
-1.5592e-161
-8.75827e-157
-1.98667e-152
-2.45074e-148
-1.91697e-144
-1.04579e-140
-4.2514e-137
-1.35329e-133
-3.50842e-130
-7.65027e-127
-1.4419e-123
-2.4061e-120
-3.62665e-117
-5.02186e-114
-6.46503e-111
-7.78523e-108
-8.76321e-105
-9.13812e-102
-8.70786e-99
-7.56503e-96
1.3546e-101
9.31609e-102
-6.35983e-184
-6.43708e-172
-7.08794e-167
-3.08984e-162
-7.24235e-158
-1.06953e-153
-1.09841e-149
-8.40211e-146
-5.03621e-142
-2.46175e-138
-1.01401e-134
-3.62042e-131
-1.14909e-127
-3.31234e-124
-8.83246e-121
-2.20793e-117
-5.21098e-114
-1.16011e-110
-2.40664e-107
-4.53954e-104
-7.61129e-101
7.89832e-106
3.43195e-106
-8.35583e-200
-9.77424e-185
-2.69866e-179
-2.8546e-174
-1.60712e-169
-5.69126e-165
-1.40845e-160
-2.61803e-156
-3.84447e-152
-4.62807e-148
-4.70945e-144
-4.16321e-140
-3.27704e-136
-2.34509e-132
-1.55293e-128
-9.63721e-125
-5.63817e-121
-3.09831e-117
-1.57007e-113
-7.07955e-110
-2.73702e-106
1.10988e-110
9.08938e-111
0
-2.84045e-204
-4.53607e-198
-2.48299e-192
-7.08726e-187
-1.26497e-181
-1.58422e-176
-1.5101e-171
-1.15658e-166
-7.3621e-162
-4.00256e-157
-1.90801e-152
-8.16576e-148
-3.19645e-143
-1.16082e-138
-3.94742e-134
-1.26119e-129
-3.75917e-125
-1.01615e-120
-2.3387e-116
-4.17765e-112
9.23326e-116
7.84419e-115
1.26375e-09
2.67252e-12
2.61861e-12
1.1411e-12
1.27413e-09
7.40432e-10
1.20549e-10
2.9604e-11
6.81033e-11
5.01539e-11
1.93419e-11
4.15466e-12
2.90854e-12
1.43568e-12
4.62481e-13
1.12824e-13
1.13375e-13
4.76009e-14
1.30671e-14
2.92316e-15
3.89796e-15
1.47038e-15
3.54176e-16
7.17009e-17
1.27184e-16
4.25943e-17
8.97959e-18
1.6218e-18
3.94494e-18
1.15154e-18
2.08903e-19
3.326e-20
1.13951e-19
2.83164e-20
4.39288e-21
6.20089e-22
2.99572e-21
6.31684e-22
8.45653e-23
1.06253e-23
7.24824e-23
1.28505e-23
1.4904e-24
1.65646e-25
1.59714e-24
2.32173e-25
2.33526e-26
2.28945e-27
3.10823e-26
3.59644e-27
3.17273e-28
2.74418e-29
5.17302e-28
4.63964e-29
3.64096e-30
2.75445e-31
7.02211e-30
4.8666e-31
3.40116e-32
2.25965e-33
6.57116e-32
4.08828e-33
2.49387e-34
1.48149e-35
4.6287e-34
2.73289e-35
1.50533e-36
8.06556e-38
2.58163e-36
1.45945e-37
7.23952e-39
3.4272e-40
1.06017e-38
5.49857e-40
2.486e-41
1.1079e-42
3.74897e-41
1.78584e-42
7.93709e-44
3.44661e-45
1.48896e-43
6.52672e-45
2.69111e-46
1.12845e-47
4.30623e-46
1.84639e-47
7.46547e-49
3.08275e-50
1.02858e-48
4.31165e-50
1.73539e-51
6.84011e-53
1.95483e-51
7.86392e-53
3.20054e-54
1.22003e-55
2.98383e-54
1.24945e-55
4.96594e-57
1.87999e-58
4.125e-57
1.58138e-58
6.67151e-60
2.50384e-61
4.09498e-60
1.55424e-61
6.73902e-63
2.54482e-64
3.05265e-63
1.21109e-64
5.4881e-66
2.09794e-67
1.72581e-66
7.32906e-68
3.62476e-69
1.38828e-70
7.78496e-70
3.51781e-71
1.9452e-72
7.60996e-74
2.86676e-73
1.3651e-74
8.71056e-76
3.53829e-77
8.85865e-77
3.80925e-78
3.1863e-79
1.34928e-80
2.09064e-80
1.0596e-81
9.49742e-83
4.31466e-84
3.20443e-84
2.78085e-85
1.70624e-86
1.17716e-87
2.62335e-88
4.60201e-89
3.41707e-90
2.77999e-91
1.87747e-92
6.25678e-93
6.69415e-94
5.75551e-95
6.90836e-97
6.62668e-97
1.1815e-97
1.06949e-98
1.15432e-99
1.81841e-100
2.03922e-101
2.01669e-102
1.04156e-103
1.94939e-104
2.2895e-105
3.18422e-106
2.58868e-107
1.83207e-108
3.35987e-109
4.52413e-110
4.80702e-111
2.47116e-112
6.00038e-113
6.53396e-114
7.7965e-115
1.21344e-115
2.46517e-116
2.43077e-117
2.01622e-13
3.64268e-15
1.61524e-17
4.57542e-20
9.5898e-23
1.67064e-25
1.65495e-28
1.15848e-31
6.2563e-35
2.48902e-38
1.0495e-41
3.16431e-45
6.35799e-49
8.97914e-53
8.15891e-57
4.22566e-61
9.28868e-66
-3.62314e-71
-1.75313e-75
3.37734e-12
2.16748e-14
1.42794e-16
6.14172e-19
1.58461e-21
2.97855e-24
3.19243e-27
2.20332e-30
1.61612e-33
8.74264e-37
3.30391e-40
9.69552e-44
1.65619e-47
2.11937e-51
1.87689e-55
8.07494e-60
2.27188e-64
2.24225e-69
4.40063e-75
3.64944e-13
2.32304e-15
2.03517e-17
1.14999e-19
4.08213e-22
9.67617e-25
1.29804e-27
1.23379e-30
1.1225e-33
7.24904e-37
3.3037e-40
1.08146e-43
2.44279e-47
3.9629e-51
4.57728e-55
2.98573e-59
9.93953e-64
1.30959e-68
3.3745e-74
1.18258e-14
1.0974e-16
1.09652e-18
6.72935e-21
2.62265e-23
6.83392e-26
1.05624e-28
1.15661e-31
1.08913e-34
7.20418e-38
3.4168e-41
1.19443e-44
3.01051e-48
5.47262e-52
6.88775e-56
5.1623e-60
2.1538e-64
4.13898e-69
2.3286e-74
3.10536e-16
3.60166e-18
4.01775e-20
2.68558e-22
1.15336e-24
3.22327e-27
5.54345e-30
6.77454e-33
6.58259e-36
4.38589e-39
2.14192e-42
7.6429e-46
1.99856e-49
3.7088e-53
4.60812e-57
3.4259e-61
1.42849e-65
2.75709e-70
1.54931e-75
7.22882e-18
9.34473e-20
1.10482e-21
7.82026e-24
3.57958e-26
1.04483e-28
1.93698e-31
2.5777e-34
2.57912e-37
1.76497e-40
8.74715e-44
3.18645e-47
8.50453e-51
1.61013e-54
1.99374e-58
1.49202e-62
6.29325e-67
1.23754e-71
7.0934e-77
1.50581e-19
2.03143e-21
2.45161e-23
1.79368e-25
8.43733e-28
2.50754e-30
4.88252e-33
6.87788e-36
7.01563e-39
4.94569e-42
2.49411e-45
9.1587e-49
2.48203e-52
4.72514e-56
5.85085e-60
4.44375e-64
1.91152e-68
3.83348e-73
2.23461e-78
2.81865e-21
3.81653e-23
4.5793e-25
3.36789e-27
1.56973e-29
4.65718e-32
9.35008e-35
1.35566e-37
1.39539e-40
9.99205e-44
5.11492e-47
1.90985e-50
5.25541e-54
1.00331e-57
1.23919e-61
9.54186e-66
4.16615e-70
8.45443e-75
4.96887e-80
4.78219e-23
6.32004e-25
7.33552e-27
5.21202e-29
2.35992e-31
6.90229e-34
1.40313e-36
2.04647e-39
2.09575e-42
1.50251e-45
7.73998e-49
2.92645e-52
8.12388e-56
1.55243e-59
1.92551e-63
1.49341e-67
6.53883e-72
1.32907e-76
7.81235e-82
7.37782e-25
9.27508e-27
1.00408e-28
6.71876e-31
2.90941e-33
8.31128e-36
1.6851e-38
2.41993e-41
2.43163e-44
1.72772e-47
8.92064e-51
3.40451e-54
9.46085e-58
1.80318e-61
2.239e-65
1.7349e-69
7.58328e-74
1.53698e-78
8.9842e-84
1.02039e-26
1.18661e-28
1.16928e-30
7.25395e-33
2.95971e-35
8.25303e-38
1.63083e-40
2.26523e-43
2.21293e-46
1.55187e-49
8.02606e-53
3.07667e-56
8.48802e-60
1.60258e-63
1.98618e-67
1.53011e-71
6.65672e-76
1.33978e-80
7.75379e-86
1.24067e-28
1.31129e-30
1.15329e-32
6.53518e-35
2.52421e-37
6.74994e-40
1.27363e-42
1.69089e-45
1.601e-48
1.10998e-51
5.74526e-55
2.19271e-58
5.95597e-62
1.10872e-65
1.36439e-69
1.04561e-73
4.51374e-78
8.98303e-83
5.13012e-88
1.29556e-30
1.23494e-32
9.58398e-35
4.96934e-37
1.79243e-39
4.51462e-42
8.0185e-45
1.01416e-47
9.34688e-51
6.42761e-54
3.31082e-57
1.24352e-60
3.30444e-64
6.05063e-68
7.37486e-72
5.63095e-76
2.40322e-80
4.71127e-85
2.64932e-90
1.13121e-32
9.8334e-35
6.71536e-37
3.14685e-39
1.04627e-41
2.44962e-44
4.08023e-47
4.94588e-50
4.47037e-53
3.04572e-56
1.54242e-59
5.64269e-63
1.46391e-66
2.63933e-70
3.18649e-74
2.41784e-78
1.01823e-82
1.96093e-87
1.08439e-92
7.98292e-35
6.51141e-37
3.87393e-39
1.63167e-41
4.95924e-44
1.07745e-46
1.69503e-49
1.99103e-52
1.77015e-55
1.18172e-58
5.80626e-62
2.06173e-65
5.23706e-69
9.31884e-73
1.11376e-76
8.3558e-81
3.47322e-85
6.56202e-90
3.56466e-95
4.75177e-37
3.46497e-39
1.80401e-41
6.84605e-44
1.90756e-46
3.8801e-49
5.84961e-52
6.68927e-55
5.78808e-58
3.73051e-61
1.76992e-64
6.12577e-68
1.53106e-71
2.69231e-75
3.17751e-79
2.34811e-83
9.64093e-88
1.78634e-92
9.63746e-98
2.62669e-39
1.51384e-41
6.86051e-44
2.35167e-46
6.04149e-49
1.16757e-51
1.69488e-54
1.86568e-57
1.54624e-60
9.5745e-64
4.4107e-67
1.49842e-70
3.69602e-74
6.41285e-78
7.44988e-82
5.41241e-86
2.19614e-90
3.99641e-95
2.15701e-100
1.22111e-41
5.84047e-44
2.35977e-46
7.10241e-49
1.65835e-51
3.00933e-54
4.09952e-57
4.26373e-60
3.38059e-63
2.02593e-66
9.12886e-70
3.0534e-73
7.42058e-77
1.26622e-80
1.4455e-84
1.03283e-88
4.13522e-93
7.49146e-98
4.01052e-103
4.52168e-44
1.99428e-46
7.37138e-49
2.02738e-51
4.30305e-54
6.95461e-57
8.54079e-60
8.28629e-63
6.2639e-66
3.61916e-69
1.5971e-72
5.24001e-76
1.24869e-79
2.08937e-83
2.34346e-87
1.64837e-91
6.51197e-96
1.19016e-100
6.2542e-106
1.51776e-46
6.39685e-49
2.16241e-51
5.46536e-54
1.05347e-56
1.54861e-59
1.73554e-62
1.52827e-65
1.06614e-68
5.78932e-72
2.45681e-75
7.76867e-79
1.79118e-82
2.93141e-86
3.25197e-90
2.27152e-94
8.93774e-99
1.60487e-103
8.3092e-109
4.45295e-49
1.78741e-51
5.48657e-54
1.28082e-56
2.29704e-59
3.1859e-62
3.38627e-65
2.80005e-68
1.81939e-71
9.21775e-75
3.61149e-78
1.07006e-81
2.35284e-85
3.74621e-89
4.04679e-93
2.7691e-97
1.06809e-101
1.88508e-106
9.55044e-112
1.13181e-51
4.11163e-54
1.18922e-56
2.62518e-59
4.47681e-62
5.95192e-65
6.12862e-68
4.87804e-71
3.02414e-74
1.44602e-77
5.36008e-81
1.50466e-84
3.14518e-88
4.74688e-92
4.88087e-96
3.20913e-100
1.1993e-104
2.05438e-109
1.01343e-114
2.2964e-54
7.66819e-57
2.19035e-59
4.67952e-62
7.74273e-65
9.98568e-68
9.98398e-71
7.77532e-74
4.65137e-77
2.14517e-80
7.67222e-84
2.06807e-87
4.15567e-91
6.029e-95
5.96866e-99
3.80282e-103
1.38198e-107
2.30399e-112
1.11239e-117
4.56559e-57
1.3702e-59
3.40585e-62
7.3152e-65
1.20218e-67
1.51164e-70
1.46371e-73
1.10696e-76
6.4946e-80
2.95922e-83
1.03369e-86
2.72421e-90
5.33547e-94
7.53739e-98
7.26286e-102
4.51453e-106
1.606e-110
2.62321e-115
1.25292e-120
7.51685e-60
2.28108e-62
5.22361e-65
9.9598e-68
1.65042e-70
2.05803e-73
1.96407e-76
1.45182e-79
8.28102e-83
3.68291e-86
1.26564e-89
3.31104e-93
6.39589e-97
8.91463e-101
8.4785e-105
5.19387e-109
1.82236e-113
2.94628e-118
1.41e-123
1.06343e-62
3.25271e-65
7.34973e-68
1.2803e-70
1.96757e-73
2.49087e-76
2.40063e-79
1.76894e-82
9.96691e-86
4.35467e-89
1.45315e-92
3.69443e-96
7.00822e-100
9.66776e-104
9.16006e-108
5.56053e-112
1.93528e-116
3.1301e-121
1.5128e-126
1.25061e-65
3.89737e-68
8.93119e-71
1.55512e-73
2.12425e-76
2.69227e-79
2.63263e-82
1.97148e-85
1.11738e-88
4.87197e-92
1.60994e-95
4.02494e-99
7.48414e-103
1.00555e-106
9.30442e-111
5.56008e-115
1.92053e-119
3.11302e-124
1.50936e-129
1.20807e-68
3.92406e-71
9.24109e-74
1.65179e-76
2.29403e-79
2.67495e-82
2.66313e-85
2.0103e-88
1.14463e-91
5.03797e-95
1.67921e-98
4.20329e-102
7.78043e-106
1.03452e-109
9.46643e-114
5.59948e-118
1.91891e-122
3.0727e-127
1.47952e-132
9.70802e-72
3.36499e-74
8.17976e-77
1.52689e-79
2.19185e-82
2.43712e-85
2.51516e-88
1.9237e-91
1.09817e-94
4.87838e-98
1.63126e-101
4.10121e-105
7.64329e-109
1.02166e-112
9.37392e-117
5.56268e-121
1.90499e-125
3.04113e-130
1.46865e-135
6.43817e-75
2.52147e-77
6.37805e-80
1.23782e-82
1.83557e-85
2.08662e-88
2.15864e-91
1.70574e-94
9.94476e-98
4.48685e-101
1.49681e-104
3.77799e-108
7.11423e-112
9.57944e-116
8.84191e-120
5.25494e-124
1.80042e-128
2.87232e-133
1.40126e-138
3.4532e-78
1.58245e-80
4.41262e-83
8.98057e-86
1.38393e-88
1.62195e-91
1.6688e-94
1.37172e-97
8.28423e-101
3.81708e-104
1.29146e-107
3.28813e-111
6.24092e-115
8.43265e-119
7.81224e-123
4.65885e-127
1.59741e-131
2.55758e-136
1.26615e-141
1.5506e-81
8.24426e-84
2.63568e-86
5.90634e-89
9.41968e-92
1.14986e-94
1.19035e-97
1.02035e-100
6.42971e-104
3.04678e-107
1.05645e-110
2.72326e-114
5.20241e-118
7.0474e-122
6.53995e-126
3.90192e-130
1.33846e-134
2.15206e-139
1.08668e-144
5.80917e-85
3.66079e-87
1.35016e-89
3.41688e-92
5.90786e-95
7.51991e-98
8.29101e-101
7.31372e-104
4.69683e-107
2.28824e-110
8.18578e-114
2.16149e-117
4.19408e-121
5.72479e-125
5.32727e-129
3.17971e-133
1.09347e-137
1.7657e-142
3.09339e-147
1.83273e-88
1.40468e-90
5.92617e-93
1.73934e-95
3.32642e-98
4.53203e-101
5.55183e-104
5.06679e-107
3.34763e-110
1.6733e-113
6.07571e-117
1.6319e-120
3.22582e-124
4.48191e-128
4.22917e-132
2.55376e-136
8.85416e-141
1.46276e-145
8.07861e-149
4.93684e-92
4.70434e-94
2.3137e-96
7.87347e-99
1.6913e-101
2.57473e-104
3.49572e-107
3.34743e-110
2.30342e-113
1.1814e-116
4.37077e-120
1.1922e-123
2.40137e-127
3.38706e-131
3.22806e-135
1.97255e-139
6.90604e-144
2.15908e-147
2.82434e-151
1.14511e-95
1.38705e-97
8.15668e-100
3.17373e-102
7.86494e-105
1.44599e-107
2.05185e-110
2.06859e-113
1.50086e-116
7.9794e-120
3.04023e-123
8.46601e-127
1.73433e-130
2.47395e-134
2.3766e-138
1.46052e-142
7.5195e-147
1.43588e-149
1.00522e-153
2.29843e-99
3.61266e-101
2.61962e-103
1.18379e-105
3.59555e-108
7.71282e-111
1.1396e-113
1.19976e-116
9.1598e-120
5.0661e-123
2.01093e-126
5.77471e-130
1.20566e-133
1.73973e-137
1.68397e-141
1.06443e-145
3.01046e-148
4.72445e-152
3.28283e-156
4.10244e-103
8.42122e-105
7.66631e-107
4.29315e-109
1.66565e-111
3.9759e-114
6.29001e-117
6.90155e-120
5.45551e-123
3.12422e-126
1.28947e-129
3.82396e-133
8.14699e-137
1.19482e-140
1.17271e-144
1.95269e-147
9.41486e-151
1.57897e-154
9.76142e-159
6.95156e-107
1.79778e-108
2.34123e-110
1.74995e-112
7.26353e-115
1.95703e-117
3.40301e-120
3.9408e-123
3.23827e-126
1.9248e-129
8.16258e-133
2.48159e-136
5.39659e-140
8.06957e-144
3.13494e-147
1.01051e-149
3.19966e-153
4.86687e-157
2.68264e-161
1.54292e-110
5.01403e-112
7.83237e-114
6.63271e-116
3.10616e-118
9.26285e-121
1.76565e-123
2.1858e-126
1.91061e-129
1.18768e-132
5.17231e-136
1.60739e-139
3.56404e-143
8.24407e-147
7.08415e-149
3.21019e-152
1.01601e-155
1.37842e-159
6.90613e-164
3.14064e-114
1.34954e-115
2.46542e-117
2.40196e-119
1.29871e-121
4.30474e-124
8.97951e-127
1.1843e-129
1.0965e-132
7.13259e-136
3.24365e-139
1.04317e-142
2.67571e-146
3.11429e-148
2.18474e-151
1.02572e-154
2.93311e-158
3.64083e-162
1.67547e-166
6.08789e-118
3.4567e-119
7.63984e-121
8.66876e-123
5.38932e-125
1.9762e-127
4.49277e-130
6.27489e-133
6.10567e-136
4.14416e-139
1.96519e-142
6.92609e-146
8.8936e-148
9.29818e-151
7.04056e-154
3.01501e-157
7.82399e-161
9.05649e-165
3.88809e-169
1
1
1
1
1
1
1
1
1
1
1
1
1
1
0.999992
0.99999
0.999023
0.995919
0.922274
0.0533367
0.00226524
4.99645e-05
9.63458e-06
1
1
1
1
1
1
1
1
1
1
1
1
1
1
0.999995
0.999837
0.999348
0.983186
0.482681
0.353275
0.0138877
0.000957663
7.19362e-05
1
1
1
1
1
1
1
1
1
1
1
1
1
0.999999
0.999973
0.999368
0.989031
0.798231
0.129424
0.0261866
0.0308858
0.00068067
6.60234e-05
1
1
1
1
1
1
1
1
1
1
1
1
1
0.999999
0.999914
0.996556
0.825227
0.0857463
0.0223422
0.00246269
0.000741589
0.00108304
1.77751e-05
1
1
1
1
1
1
1
1
1
1
1
1
1
1
0.999885
0.951477
0.117938
0.0126927
0.00269399
0.000486151
0.000160234
5.65314e-05
4.33103e-06
1
1
1
1
1
1
1
1
1
1
1
1
1
1
0.999989
0.498051
0.0163984
0.00310419
0.000505795
9.22972e-05
3.1777e-05
1.23357e-05
1.08511e-06
1
1
1
1
1
1
1
1
1
1
1
1
1
1
0.999691
0.0734369
0.00500981
0.000763043
0.000107291
1.96555e-05
6.3176e-06
2.53317e-06
2.88454e-07
1
1
1
1
1
1
1
1
1
1
1
1
1
1
0.767245
0.0145655
0.00162944
0.000181442
2.35344e-05
3.76366e-06
1.0952e-06
5.98622e-07
7.82618e-08
5.01799e-37
1.39943e-36
4.39696e-39
6.70947e-42
5.93893e-45
4.16288e-48
2.34846e-51
1.03619e-54
4.12223e-58
1.62143e-61
4.60125e-65
9.31465e-69
1.37101e-72
1.46172e-76
1.04116e-80
4.02764e-85
6.69416e-90
3.23123e-95
8.08828e-98
4.85621e-32
3.94886e-32
4.2561e-35
3.46417e-38
4.80668e-41
4.78167e-44
3.90571e-47
2.38715e-50
1.10004e-53
5.25496e-57
2.61812e-60
6.99245e-64
1.35475e-67
1.86989e-71
1.98952e-75
1.44e-79
3.60526e-84
1.97287e-89
6.65651e-95
2.57046e-28
1.36894e-28
2.49671e-31
1.83771e-34
2.76143e-37
3.07038e-40
2.88135e-43
2.02014e-46
1.03202e-49
4.8644e-53
2.25712e-56
6.59439e-60
1.36082e-63
1.60245e-67
1.22531e-71
5.81024e-76
1.27025e-80
7.25116e-86
8.58717e-91
4.1517e-25
1.47251e-25
2.80298e-28
3.23793e-31
3.78985e-34
4.64851e-37
4.78378e-40
3.71788e-43
2.01263e-46
8.94017e-50
3.2706e-53
8.88808e-57
1.64724e-60
1.98292e-64
1.47163e-68
6.60609e-73
1.39115e-77
8.09827e-83
1.61772e-87
2.36169e-22
6.32963e-23
1.43167e-25
1.5867e-28
1.4084e-31
2.0163e-34
2.16661e-37
1.66073e-40
8.9774e-44
3.91545e-47
1.39195e-50
3.80119e-54
6.79917e-58
7.95062e-62
5.96532e-66
2.64701e-70
5.40696e-75
3.04237e-80
9.95476e-85
6.33004e-20
1.12849e-20
2.6341e-23
3.861e-26
2.43674e-29
3.73753e-32
4.43958e-35
3.43804e-38
1.87448e-41
8.36197e-45
2.79468e-48
7.69939e-52
1.34967e-55
1.52871e-59
1.17818e-63
5.08513e-68
9.98285e-73
5.51846e-78
2.58919e-82
8.92772e-18
1.06402e-18
2.0825e-21
3.42623e-24
2.72252e-27
3.29542e-30
4.19222e-33
3.44791e-36
1.85546e-39
8.53823e-43
2.85101e-46
7.52409e-50
1.32423e-53
1.50274e-57
1.1366e-61
4.86424e-66
9.26515e-71
4.9204e-76
3.50201e-80
7.20052e-16
3.33956e-17
5.84323e-20
9.22862e-23
9.80202e-26
1.19844e-28
1.46173e-31
1.2374e-34
6.9894e-38
3.21457e-41
1.09344e-44
2.78355e-48
4.84673e-52
5.61383e-56
4.25087e-60
1.80463e-64
3.39857e-69
1.78076e-74
2.14029e-78
1
1
1
1
1
1
1
1
1
1
1
1
1
0.999985
0.306587
0.00446659
0.000285312
2.51909e-05
1.89368e-06
2.09473e-07
6.85434e-08
5.47852e-08
9.3305e-09
1
1
1
1
1
1
1
1
1
1
1
1
1
0.957593
0.0115941
0.000525547
2.71736e-05
1.78717e-06
1.23072e-07
1.36463e-08
3.96777e-09
2.48502e-09
7.22718e-10
1
1
1
1
1
1
1
1
1
1
1
1
1
0.376108
0.00193108
5.8168e-05
2.32163e-06
1.31616e-07
8.21177e-09
1.18979e-09
4.50397e-10
1.96475e-10
9.75123e-11
1
1
1
1
1
1
1
1
1
1
1
1
0.999999
0.0466887
0.000272063
5.83925e-06
1.79324e-07
8.89523e-09
7.52967e-10
2.89443e-10
9.87046e-11
2.70693e-11
5.91811e-12
1
1
1
1
1
1
1
1
1
1
1
1
0.95379
0.00355029
3.16333e-05
5.11016e-07
1.27444e-08
6.87244e-10
2.12881e-10
5.44372e-11
9.23956e-12
1.63007e-12
2.65427e-13
1
1
1
1
1
1
1
1
1
1
1
1
0.635365
0.000728983
2.7105e-06
4.12545e-08
1.05475e-09
1.92023e-10
4.73416e-11
5.74327e-12
6.87893e-13
8.5066e-14
1.03517e-14
1
1
1
1
1
1
1
1
1
1
1
1
0.281401
0.000119678
2.2751e-07
3.21898e-09
2.50788e-10
7.3855e-11
6.42115e-12
5.44386e-13
4.72553e-14
4.22311e-15
3.85617e-16
1
1
1
1
1
1
1
1
1
1
1
1
0.0877353
1.29887e-05
1.25908e-08
4.27252e-10
1.00324e-10
1.54072e-11
8.37304e-13
4.72435e-14
3.01824e-15
1.99893e-16
1.3702e-17
1
1
1
1
1
1
1
1
1
1
1
1
0.0120453
1.15253e-06
1.34284e-08
1.58757e-10
4.31682e-11
2.26127e-12
9.01646e-14
3.76551e-15
1.76325e-16
8.77375e-18
4.54523e-19
1
1
1
1
1
1
1
1
1
1
1
1
0.000764965
-2.56289e-07
1.123e-09
7.09944e-11
1.22503e-11
3.24587e-13
8.36728e-15
2.63075e-16
9.26733e-18
3.49022e-19
1.37478e-20
1
1
1
1