/*--------------------------------*- C++ -*----------------------------------*\
| =========                 |                                                 |
| \\      /  F ield         | OpenFOAM: The Open Source CFD Toolbox           |
|  \\    /   O peration     | Version:  v1912                                 |
|   \\  /    A nd           | Website:  www.openfoam.com                      |
|    \\/     M anipulation  |                                                 |
\*---------------------------------------------------------------------------*/
FoamFile
{
    version     2.0;
    format      ascii;
    class       volScalarField;
    location    "0.1";
    object      p;
}
// * * * * * * * * * * * * * * * * * * * * * * * * * * * * * * * * * * * * * //

dimensions      [1 -1 -2 0 0 0 0];


internalField   nonuniform List<scalar> 
9072
(
1915.05
1939.28
1924.21
1900.44
1867.4
1824.48
1770.94
1705.83
1627.99
1536.04
1428.41
1303.32
1159
994.37
810.548
610.844
409.84
242.798
120.812
49.7958
13.5659
6.41843
5.99778
1856.33
1880.49
1865.42
1841.64
1808.58
1765.64
1712.05
1646.87
1568.91
1476.78
1368.88
1243.36
1098.36
932.537
747.037
544.952
342.109
175.545
64.3315
11.973
6.79785
5.03315
5.66103
1797.73
1821.79
1806.73
1782.93
1749.83
1706.83
1653.13
1587.78
1509.56
1417.02
1308.49
1181.99
1035.37
866.94
677.535
468.869
259.361
93.9101
15.8355
3.82515
2.20481
3.00672
4.54064
1739.26
1763.2
1748.15
1724.32
1691.17
1648.07
1594.22
1528.61
1449.99
1356.85
1247.4
1119.4
970.237
797.759
601.736
380.322
154.992
19.0463
2.81087
1.7812
1.68203
1.90573
3.4968
1680.97
1704.75
1689.71
1665.84
1632.63
1589.43
1535.38
1469.45
1390.34
1296.45
1185.8
1055.81
903.336
725.441
519.371
275.39
46.6471
3.13512
1.4779
1.38281
1.51921
1.78017
2.70843
1622.89
1646.49
1631.45
1607.55
1574.28
1530.96
1476.69
1410.41
1330.74
1235.98
1123.9
991.564
835.111
650.502
430.898
152.918
8.73761
1.50109
1.14271
1.2476
1.39996
1.63843
2.1307
1565.07
1588.46
1573.42
1549.51
1516.17
1472.73
1418.24
1351.57
1271.33
1175.62
1061.95
927.047
766.169
573.996
337.125
50.2842
2.63938
0.937471
0.970848
1.10857
1.24785
1.43222
1.64643
1507.51
1530.71
1515.67
1491.72
1458.33
1414.77
1360.08
1293.06
1212.24
1115.57
1000.27
862.695
697.178
497.715
237.09
14.0907
1.07147
0.71579
0.833135
0.966484
1.08733
1.199
1.2072
0.583927
0.61615
0.615043
0.608749
0.598761
0.586845
0.574181
0.561497
0.549276
0.537806
0.527272
0.517782
0.509402
0.502167
0.496091
0.491178
0.487432
0.484852
0.483432
0.523625
0.557206
0.556495
0.550196
0.540111
0.528087
0.515328
0.502587
0.490328
0.478832
0.468284
0.458786
0.450401
0.443163
0.437085
0.432172
0.428427
0.425848
0.424434
0.461762
0.49814
0.498527
0.492184
0.481812
0.4695
0.4565
0.443589
0.431216
0.419652
0.409064
0.399544
0.391147
0.383901
0.37782
0.372909
0.369167
0.366593
0.365182
0.39788
0.439161
0.441264
0.434724
0.42386
0.411061
0.397673
0.384486
0.371934
0.36026
0.349606
0.340051
0.331636
0.324383
0.318299
0.313391
0.309655
0.307083
0.305667
0.330553
0.38011
0.384872
0.37785
0.366226
0.35274
0.338819
0.32526
0.312468
0.300647
0.289906
0.280303
0.271866
0.264604
0.258522
0.25362
0.249889
0.24732
0.245916
0.254369
0.321212
0.329412
0.321514
0.308848
0.294484
0.279902
0.265885
0.2528
0.240802
0.229958
0.220298
0.211835
0.204565
0.198487
0.193594
0.189869
0.187304
0.185884
0.171935
0.260259
0.274713
0.26566
0.251646
0.236222
0.220867
0.206327
0.192909
0.180711
0.169752
0.160032
0.151542
0.144266
0.138194
0.133309
0.129595
0.127039
0.125643
0.0862158
0.202077
0.220069
0.210161
0.194489
0.177858
0.161656
0.146551
0.132774
0.120359
0.109277
0.0994963
0.0909822
0.0837045
0.0776404
0.0727682
0.0690684
0.0665244
0.0651133
1402.33
1457.04
1441.99
1418.01
1384.54
1340.84
1285.91
1218.47
1136.92
1039
921.62
780.599
609.198
401.945
111.644
3.12593
0.493559
0.554953
0.669409
0.780354
0.870016
0.90556
0.705143
1283.12
1336.54
1321.55
1297.59
1264.13
1220.38
1165.26
1097.41
1015.02
915.576
795.592
650.236
471.964
249.261
12.4088
0.33657
0.219539
0.315703
0.409817
0.493294
0.549373
0.547507
0.425842
1166.57
1218.45
1203.61
1179.85
1146.64
1103.15
1048.28
980.583
898.135
798.331
677.52
530.557
351.854
112.144
1.2183
-0.110282
-0.00227596
0.0850709
0.165968
0.232909
0.277524
0.286799
0.243391
1053.24
1103.37
1088.82
1065.47
1032.8
990.003
935.957
869.195
787.803
689.232
569.984
424.911
252.438
21.9825
-0.196782
-0.304504
-0.216952
-0.137421
-0.0671799
-0.00992068
0.028995
0.0430004
0.0276319
943.644
991.861
977.727
955.032
923.27
881.662
829.128
764.25
685.2
589.627
474.455
334.725
170.037
2.62262
-0.572397
-0.493663
-0.423207
-0.352628
-0.290295
-0.238972
-0.202079
-0.18277
-0.183332
838.192
884.402
870.846
849.086
818.636
778.76
728.464
666.439
591.018
500.134
391.315
260.379
102.711
-0.0658817
-0.787521
-0.69569
-0.626417
-0.561973
-0.504908
-0.457099
-0.421246
-0.398622
-0.390614
737.147
781.336
768.518
747.969
719.23
681.623
634.26
575.984
505.349
420.605
319.881
200.351
52.0726
-0.981474
-0.957988
-0.895233
-0.827246
-0.766104
-0.712315
-0.666697
-0.631088
-0.60602
-0.592488
640.644
682.858
670.934
651.842
625.177
590.343
546.561
492.837
427.96
350.495
259.059
152.259
17.6508
-1.1424
-1.1549
-1.0886
-1.0238
-0.965144
-0.91349
-0.869244
-0.833236
-0.806237
-0.788893
548.653
589.018
578.13
560.731
536.475
504.842
465.177
416.664
358.306
288.954
207.637
114.583
1.74324
-1.40014
-1.34986
-1.27656
-1.21594
-1.15952
-1.10924
-1.06561
-1.02899
-1.00035
-0.980097
461.036
499.708
489.979
474.465
452.869
424.772
389.636
346.82
295.537
234.856
164.044
84.3963
-1.10822
-1.70823
-1.55675
-1.46677
-1.40527
-1.34971
-1.29993
-1.25652
-1.21926
-1.1891
-1.16633
377.507
414.698
406.216
392.713
373.973
349.665
319.371
282.601
238.753
187.076
126.853
59.3669
-1.40925
-1.84813
-1.72808
-1.65165
-1.59012
-1.53528
-1.4859
-1.44245
-1.40459
-1.37298
-1.34796
297.689
333.643
326.473
315.085
299.318
278.951
253.682
223.152
186.939
144.455
94.9285
39.0694
-1.94851
-1.96344
-1.89206
-1.82773
-1.76974
-1.71652
-1.66784
-1.62393
-1.58531
-1.55244
-1.5255
221.083
256.108
250.245
241.003
228.261
211.875
191.679
167.464
138.975
105.778
67.0595
22.7162
-2.08955
-2.09025
-2.04864
-1.99728
-1.94587
-1.89499
-1.84637
-1.80165
-1.76193
-1.72776
-1.69908
147.089
181.353
176.816
169.676
159.909
147.45
132.249
114.258
93.3889
69.4193
41.6785
8.2571
-2.28543
-2.23538
-2.20134
-2.1659
-2.12124
-2.0721
-2.02255
-1.97611
-1.93486
-1.89904
-1.86864
74.1453
109.255
105.986
100.864
93.9309
85.1923
74.7038
62.5596
48.8713
33.7229
17.0883
-0.379574
-2.37086
-2.33576
-2.36071
-2.34489
-2.30225
-2.24984
-2.19707
-2.14778
-2.10408
-2.0663
-2.0343
15.4579
38.5328
36.5737
33.6625
29.9085
25.4817
20.5619
15.6239
11.1237
6.59143
1.83199
-1.0296
-1.93586
-2.44008
-2.56695
-2.54993
-2.49356
-2.43017
-2.36988
-2.3161
-2.26943
-2.22963
-2.19621
-3.57225
0.718585
0.258813
-0.421813
-1.21826
-2.07039
-2.87102
-3.47032
-3.83792
-4.02291
-4.32944
-4.38755
-3.20281
-3.10425
-2.91434
-2.79529
-2.69421
-2.60988
-2.53929
-2.48001
-2.43037
-2.38887
-2.35426
-3.62222
-3.58745
-3.5908
-3.61029
-3.63241
-3.66332
-3.70528
-3.76929
-3.87294
-4.03977
-4.31183
-4.63436
-4.57491
-4.04616
-3.32572
-3.04475
-2.88778
-2.78158
-2.70144
-2.63782
-2.58607
-2.54345
-2.50813
-3.69122
-3.65549
-3.65968
-3.67228
-3.68956
-3.7123
-3.74332
-3.79009
-3.86879
-4.01724
-4.33946
-4.89886
-5.18377
-4.18713
-3.53475
-3.22338
-3.04923
-2.93569
-2.85265
-2.78768
-2.73557
-2.69294
-2.65772
-3.74895
-3.71793
-3.72
-3.7274
-3.73747
-3.75173
-3.76944
-3.79425
-3.83827
-3.92247
-4.11107
-4.44406
-4.4484
-3.89105
-3.53259
-3.31564
-3.17156
-3.06943
-2.99111
-2.92899
-2.87877
-2.8374
-2.80316
-3.80509
-3.7747
-3.7757
-3.78055
-3.78522
-3.78832
-3.79293
-3.79834
-3.80736
-3.82623
-3.85776
-3.90292
-3.83151
-3.66332
-3.50851
-3.37585
-3.27134
-3.1878
-3.11927
-3.06289
-3.01627
-2.97727
-2.94472
-3.8649
-3.83432
-3.83417
-3.83513
-3.8333
-3.8291
-3.82265
-3.81262
-3.80123
-3.78921
-3.77302
-3.75046
-3.69888
-3.61861
-3.5273
-3.4413
-3.3657
-3.29908
-3.24091
-3.19132
-3.14912
-3.11313
-3.08283
-3.93076
-3.89683
-3.89523
-3.89252
-3.88692
-3.87663
-3.86182
-3.84285
-3.82077
-3.79663
-3.76784
-3.73435
-3.69167
-3.6391
-3.57906
-3.51932
-3.46198
-3.40818
-3.35927
-3.31613
-3.27839
-3.2459
-3.21814
-3.99954
-3.96405
-3.96146
-3.95615
-3.94755
-3.93307
-3.91282
-3.88943
-3.86505
-3.83804
-3.8073
-3.77422
-3.73815
-3.69677
-3.65231
-3.60673
-3.56152
-3.51759
-3.47629
-3.43872
-3.4054
-3.37656
-3.35118
-4.07387
-4.0355
-4.03237
-4.02519
-4.01329
-3.99615
-3.97467
-3.95147
-3.92695
-3.89966
-3.87077
-3.84107
-3.80861
-3.77381
-3.7382
-3.70201
-3.66527
-3.62845
-3.59302
-3.56024
-3.53124
-3.50566
-3.4823
-4.15163
-4.11094
-4.10687
-4.09818
-4.08448
-4.06691
-4.04668
-4.02448
-4.00034
-3.97522
-3.94975
-3.92261
-3.89346
-3.8639
-3.83433
-3.80391
-3.77225
-3.74041
-3.70977
-3.68168
-3.6565
-3.63339
-3.61185
-4.23277
-4.19026
-4.18527
-4.17594
-4.16197
-4.14439
-4.12485
-4.10426
-4.08317
-4.06168
-4.03866
-4.01356
-3.98773
-3.96208
-3.93594
-3.90867
-3.88078
-3.85339
-3.82755
-3.8036
-3.78111
-3.75986
-3.74033
-4.31649
-4.27211
-4.26658
-4.25676
-4.24282
-4.22621
-4.20855
-4.19071
-4.1725
-4.15285
-4.13129
-4.10878
-4.08633
-4.06368
-4.04003
-4.0157
-3.99164
-3.9685
-3.9465
-3.92531
-3.90487
-3.88565
-3.86829
-4.40277
-4.3565
-4.34961
-4.3396
-4.32725
-4.31357
-4.29906
-4.28356
-4.26656
-4.24801
-4.22864
-4.20917
-4.1895
-4.16893
-4.14741
-4.12583
-4.10494
-4.08481
-4.06531
-4.04642
-4.02834
-4.01143
-3.99582
-4.49
-4.44304
-4.43597
-4.42655
-4.41604
-4.4048
-4.39251
-4.37876
-4.36358
-4.34749
-4.3309
-4.31372
-4.2955
-4.2762
-4.25654
-4.23733
-4.21891
-4.20118
-4.18409
-4.16773
-4.15211
-4.13709
-4.12255
-4.57752
-4.53111
-4.52533
-4.5175
-4.50837
-4.49831
-4.4873
-4.47533
-4.46248
-4.44877
-4.43405
-4.41809
-4.40101
-4.38348
-4.36623
-4.34965
-4.33378
-4.31852
-4.3038
-4.28958
-4.27569
-4.26191
-4.24829
-4.66716
-4.62037
-4.61683
-4.61141
-4.60437
-4.59597
-4.58642
-4.57588
-4.56431
-4.55163
-4.53779
-4.523
-4.50779
-4.49275
-4.47817
-4.46409
-4.45042
-4.43707
-4.42397
-4.4111
-4.39836
-4.38575
-4.37348
-4.76094
-4.71272
-4.71087
-4.70766
-4.7029
-4.69649
-4.68851
-4.67907
-4.66832
-4.65646
-4.64378
-4.63072
-4.61767
-4.60484
-4.59228
-4.57991
-4.56767
-4.55555
-4.5436
-4.53188
-4.52041
-4.50931
-4.49875
-4.8587
-4.80888
-4.80756
-4.80518
-4.80149
-4.7963
-4.78956
-4.78138
-4.772
-4.76172
-4.75088
-4.7398
-4.72865
-4.71752
-4.70642
-4.69535
-4.68434
-4.67349
-4.66289
-4.65263
-4.64274
-4.6333
-4.62443
-4.95925
-4.90801
-4.90647
-4.90395
-4.90039
-4.89571
-4.88991
-4.88306
-4.87532
-4.86689
-4.85797
-4.84874
-4.8393
-4.82972
-4.82009
-4.81047
-4.80099
-4.79172
-4.78274
-4.77409
-4.76578
-4.75786
-4.75042
-5.06249
-5.00975
-5.00804
-5.00543
-5.00196
-4.99768
-4.99261
-4.98684
-4.98044
-4.97352
-4.96618
-4.95851
-4.95062
-4.94257
-4.93449
-4.92647
-4.9186
-4.91094
-4.90351
-4.89632
-4.8894
-4.88278
-4.87653
-5.16857
-5.11449
-5.11291
-5.1105
-5.10735
-5.10352
-5.0991
-5.09414
-5.08872
-5.0829
-5.07675
-5.07036
-5.06378
-5.05712
-5.05046
-5.04388
-5.03743
-5.03114
-5.02502
-5.01908
-5.01336
-5.00788
-5.00268
-5.2768
-5.22189
-5.22054
-5.21846
-5.21573
-5.21242
-5.20859
-5.20432
-5.19968
-5.19473
-5.18954
-5.18418
-5.17872
-5.17323
-5.16777
-5.16239
-5.15712
-5.15199
-5.147
-5.14216
-5.1375
-5.13306
-5.12883
-5.38631
-5.33095
-5.32982
-5.32808
-5.32578
-5.32297
-5.31972
-5.3161
-5.31217
-5.30802
-5.30369
-5.29926
-5.29478
-5.2903
-5.28587
-5.28153
-5.2773
-5.27321
-5.26925
-5.26543
-5.26177
-5.25831
-5.25502
-5.4965
-5.44096
-5.44004
-5.4386
-5.43669
-5.43437
-5.43168
-5.4287
-5.42548
-5.42209
-5.41858
-5.41501
-5.41143
-5.40789
-5.40441
-5.40104
-5.39779
-5.39467
-5.3917
-5.38887
-5.38618
-5.38364
-5.38125
-5.60736
-5.55154
-5.55081
-5.54967
-5.54814
-5.54629
-5.54416
-5.5418
-5.53927
-5.53661
-5.53389
-5.53116
-5.52844
-5.52579
-5.52324
-5.5208
-5.5185
-5.51634
-5.51433
-5.51245
-5.51071
-5.5091
-5.50759
-5.71808
-5.66291
-5.6624
-5.66152
-5.66034
-5.65891
-5.65727
-5.65547
-5.65356
-5.65159
-5.6496
-5.64765
-5.64576
-5.64396
-5.6423
-5.64077
-5.63939
-5.63817
-5.63711
-5.63619
-5.63539
-5.6347
-5.63406
-0.679064
-0.511366
-0.423509
-0.235505
0.167943
-0.0413429
-0.0881225
-0.0609899
0.157088
0.107436
0.0690266
0.0395531
-0.00683327
-0.0303158
-0.0546581
-0.0785186
-0.198952
-0.21081
-0.224818
-0.240722
-0.394895
-0.400207
-0.407795
-0.41752
-0.589616
-0.590628
-0.593791
-0.59883
-0.781015
-0.778896
-0.778727
-0.780324
-0.96845
-0.963975
-0.961349
-0.960361
-1.15179
-1.14567
-1.1412
-1.13803
-1.33123
-1.32387
-1.31781
-1.31274
-1.50686
-1.49835
-1.49089
-1.48428
-1.67865
-1.66906
-1.66043
-1.65261
-1.84665
-1.83614
-1.82652
-1.81771
-2.01097
-1.99967
-1.98921
-1.97956
-2.17173
-2.15972
-2.14855
-2.1382
-2.32886
-2.31635
-2.30465
-2.29377
-2.48229
-2.46953
-2.4575
-2.44622
-2.63203
-2.61924
-2.60705
-2.59556
-2.77811
-2.7655
-2.75337
-2.74191
-2.9207
-2.90847
-2.89665
-2.88547
-3.06014
-3.04843
-3.03714
-3.02648
-3.19682
-3.18573
-3.17519
-3.16521
-3.33114
-3.32078
-3.31116
-3.3019
-3.46359
-3.45411
-3.44538
-3.43668
-3.59474
-3.58614
-3.57797
-3.56954
-3.725
-3.71701
-3.70896
-3.70066
-3.85438
-3.84657
-3.8385
-3.83052
-3.98266
-3.97488
-3.96709
-3.95985
-4.10986
-4.10242
-4.09544
-4.08921
-4.23647
-4.22989
-4.22398
-4.21873
-4.36312
-4.35762
-4.35271
-4.34822
-4.49006
-4.48554
-4.4814
-4.4775
-4.6172
-4.61343
-4.60989
-4.60649
-4.74436
-4.74118
-4.73815
-4.7352
-4.87144
-4.86876
-4.86618
-4.86366
-4.99844
-4.99622
-4.99407
-4.99196
-5.1254
-5.1236
-5.12186
-5.12016
-5.25234
-5.25096
-5.24961
-5.24829
-5.37931
-5.37832
-5.37736
-5.37642
-5.50636
-5.50575
-5.50515
-5.50457
-5.63353
-5.63328
-5.63304
-5.6328
-0.0106622
0.131337
0.151556
0.139331
0.121243
0.10275
0.0854032
0.069561
0.0553145
0.0426175
0.0313822
0.0215287
0.0129918
0.00572061
-0.000324417
-0.00517351
-0.00884968
-0.0113726
-0.0127447
0.0125177
0.0612241
0.0460969
0.0217315
-0.00186488
-0.0234303
-0.0426208
-0.0595941
-0.0745306
-0.0876172
-0.0990428
-0.108963
-0.117492
-0.124716
-0.130697
-0.135482
-0.139102
-0.141582
-0.142937
0.00785236
-0.0317735
-0.0682086
-0.100964
-0.128809
-0.152632
-0.173109
-0.190843
-0.206202
-0.219477
-0.230942
-0.240816
-0.249253
-0.256367
-0.26224
-0.266926
-0.270464
-0.272885
-0.274207
-0.110009
-0.157592
-0.197747
-0.232337
-0.26135
-0.28579
-0.306617
-0.324529
-0.339913
-0.353094
-0.364396
-0.374077
-0.382315
-0.389241
-0.394944
-0.399486
-0.402909
-0.40525
-0.406528
-0.2642
-0.304233
-0.340296
-0.372346
-0.39982
-0.423235
-0.443398
-0.460823
-0.475769
-0.488526
-0.499431
-0.508753
-0.516671
-0.523316
-0.528781
-0.533129
-0.536404
-0.53864
-0.539861
-0.433071
-0.462816
-0.492061
-0.519389
-0.543564
-0.56472
-0.583367
-0.599686
-0.613735
-0.625737
-0.63601
-0.644802
-0.652272
-0.658542
-0.663702
-0.667806
-0.670896
-0.673007
-0.674158
-0.607868
-0.627913
-0.64979
-0.671507
-0.691488
-0.709662
-0.726192
-0.740899
-0.753655
-0.764614
-0.774043
-0.782144
-0.789048
-0.794856
-0.799643
-0.803454
-0.806325
-0.808286
-0.809356
-0.784456
-0.796141
-0.810954
-0.826916
-0.842456
-0.857346
-0.871387
-0.884113
-0.895276
-0.904964
-0.913377
-0.920658
-0.926897
-0.932165
-0.936518
-0.939989
-0.942608
-0.944399
-0.945375
-0.960625
-0.965305
-0.973742
-0.984275
-0.99552
-1.00707
-1.01842
-1.02895
-1.03832
-1.04659
-1.05386
-1.06022
-1.06572
-1.07038
-1.07425
-1.07735
-1.07969
-1.08129
-1.08217
-1.13506
-1.13397
-1.13693
-1.1426
-1.14985
-1.15813
-1.16674
-1.17496
-1.18247
-1.18923
-1.1953
-1.20067
-1.20536
-1.20938
-1.21274
-1.21543
-1.21747
-1.21887
-1.21964
-1.30712
-1.30137
-1.29973
-1.30114
-1.30474
-1.3099
-1.31581
-1.32176
-1.3274
-1.33265
-1.33748
-1.34184
-1.3457
-1.34904
-1.35186
-1.35413
-1.35586
-1.35706
-1.35771
-1.47658
-1.46707
-1.46155
-1.45926
-1.45958
-1.46185
-1.4652
-1.46898
-1.47282
-1.4766
-1.48021
-1.48356
-1.48658
-1.48923
-1.4915
-1.49335
-1.49477
-1.49575
-1.49629
-1.64327
-1.63067
-1.62191
-1.61647
-1.6139
-1.61354
-1.61456
-1.61633
-1.6185
-1.62087
-1.6233
-1.62566
-1.62785
-1.62984
-1.63156
-1.63298
-1.63409
-1.63485
-1.63527
-1.80704
-1.79191
-1.78048
-1.77241
-1.76734
-1.76465
-1.76358
-1.76355
-1.76419
-1.76526
-1.76657
-1.76799
-1.7694
-1.77073
-1.77192
-1.77294
-1.77373
-1.77429
-1.77459
-1.96779
-1.95062
-1.93706
-1.92683
-1.91964
-1.91493
-1.91205
-1.91044
-1.90971
-1.90959
-1.90988
-1.91042
-1.91108
-1.9118
-1.91249
-1.91311
-1.9136
-1.91396
-1.91415
-2.12553
-2.10675
-2.09154
-2.07957
-2.07062
-2.06422
-2.0598
-2.05683
-2.05489
-2.05371
-2.05308
-2.05281
-2.0528
-2.05294
-2.05316
-2.05341
-2.05362
-2.05379
-2.05388
-2.28036
-2.26035
-2.24387
-2.23054
-2.22016
-2.21238
-2.2067
-2.20259
-2.19962
-2.19751
-2.19605
-2.19507
-2.19444
-2.19405
-2.19385
-2.19375
-2.19371
-2.1937
-2.1937
-2.4323
-2.41149
-2.39409
-2.37968
-2.36819
-2.35935
-2.35267
-2.34761
-2.34378
-2.34087
-2.3387
-2.33709
-2.33591
-2.33506
-2.33447
-2.33406
-2.33379
-2.33362
-2.33353
-2.58142
-2.56023
-2.54221
-2.527
-2.51469
-2.50507
-2.49763
-2.49184
-2.48729
-2.48373
-2.48095
-2.4788
-2.47715
-2.4759
-2.47496
-2.47428
-2.4738
-2.47349
-2.47332
-2.72785
-2.70662
-2.68822
-2.6725
-2.65967
-2.64955
-2.64158
-2.63522
-2.63012
-2.62602
-2.62275
-2.62015
-2.61809
-2.61649
-2.61526
-2.61434
-2.61368
-2.61325
-2.61302
-2.87175
-2.85071
-2.83215
-2.81621
-2.80318
-2.7928
-2.78449
-2.77774
-2.77222
-2.76771
-2.76404
-2.76107
-2.75868
-2.75679
-2.75532
-2.7542
-2.75339
-2.75285
-2.75256
-3.01326
-2.99255
-2.97406
-2.95822
-2.94527
-2.93486
-2.92639
-2.91939
-2.91357
-2.90875
-2.90478
-2.90153
-2.89889
-2.89677
-2.89509
-2.89381
-2.89287
-2.89224
-2.8919
-3.15254
-3.13228
-3.11412
-3.09869
-3.08609
-3.07582
-3.06731
-3.06018
-3.05418
-3.04917
-3.04499
-3.04153
-3.03869
-3.0364
-3.03457
-3.03315
-3.03211
-3.03141
-3.03103
-3.2897
-3.27001
-3.25252
-3.2378
-3.22572
-3.21572
-3.20729
-3.20014
-3.19407
-3.18894
-3.18463
-3.18104
-3.17807
-3.17565
-3.17371
-3.1722
-3.17108
-3.17033
-3.16992
-3.42484
-3.40598
-3.38949
-3.37572
-3.36427
-3.35463
-3.34638
-3.3393
-3.33325
-3.32809
-3.32372
-3.32006
-3.31701
-3.31451
-3.3125
-3.31093
-3.30977
-3.30897
-3.30854
-3.55814
-3.5405
-3.52533
-3.51261
-3.50185
-3.49262
-3.48463
-3.47771
-3.47174
-3.46663
-3.46228
-3.4586
-3.45552
-3.45299
-3.45094
-3.44934
-3.44814
-3.44733
-3.44689
-3.68999
-3.67397
-3.66027
-3.64861
-3.63855
-3.62977
-3.6221
-3.61541
-3.6096
-3.6046
-3.60031
-3.59667
-3.59361
-3.59107
-3.58902
-3.58741
-3.58621
-3.58539
-3.58494
-3.82097
-3.80677
-3.7945
-3.78382
-3.77444
-3.76616
-3.75886
-3.75245
-3.74686
-3.74202
-3.73784
-3.73428
-3.73128
-3.72878
-3.72675
-3.72516
-3.72396
-3.72315
-3.72271
-3.9516
-3.93912
-3.92811
-3.91833
-3.90961
-3.90185
-3.89496
-3.88889
-3.88356
-3.87892
-3.87491
-3.87147
-3.86855
-3.86612
-3.86415
-3.86259
-3.86142
-3.86062
-3.86019
-4.08216
-4.0711
-4.06116
-4.0522
-4.04414
-4.03692
-4.03048
-4.02478
-4.01975
-4.01535
-4.01153
-4.00824
-4.00545
-4.00312
-4.00121
-3.9997
-3.99857
-3.9978
-3.99738
-4.21261
-4.20271
-4.19369
-4.1855
-4.1781
-4.17143
-4.16547
-4.16016
-4.15546
-4.15134
-4.14774
-4.14463
-4.14199
-4.13977
-4.13796
-4.13652
-4.13544
-4.13471
-4.13431
-4.34282
-4.33391
-4.32575
-4.3183
-4.31155
-4.30545
-4.29998
-4.29509
-4.29075
-4.28692
-4.28357
-4.28067
-4.2782
-4.27612
-4.27442
-4.27306
-4.27205
-4.27135
-4.27097
-4.47271
-4.46471
-4.45737
-4.45067
-4.44457
-4.43904
-4.43407
-4.42961
-4.42564
-4.42214
-4.41906
-4.41639
-4.41411
-4.41218
-4.4106
-4.40935
-4.4084
-4.40775
-4.4074
-4.60225
-4.59515
-4.58862
-4.58265
-4.5772
-4.57226
-4.56779
-4.56378
-4.5602
-4.55703
-4.55424
-4.55181
-4.54973
-4.54798
-4.54654
-4.54539
-4.54452
-4.54393
-4.54361
-4.73149
-4.72528
-4.71955
-4.7143
-4.70951
-4.70514
-4.70119
-4.69764
-4.69446
-4.69163
-4.68914
-4.68697
-4.68511
-4.68354
-4.68224
-4.68121
-4.68043
-4.6799
-4.67961
-4.86048
-4.85514
-4.8502
-4.84567
-4.84152
-4.83774
-4.83431
-4.83122
-4.82844
-4.82597
-4.82379
-4.82189
-4.82026
-4.81888
-4.81774
-4.81683
-4.81614
-4.81567
-4.81541
-4.9893
-4.98481
-4.98065
-4.97683
-4.97332
-4.97012
-4.96721
-4.96458
-4.96222
-4.96011
-4.95825
-4.95663
-4.95523
-4.95404
-4.95306
-4.95228
-4.95169
-4.95128
-4.95106
-5.11799
-5.11433
-5.11094
-5.10781
-5.10494
-5.10232
-5.09993
-5.09776
-5.09581
-5.09407
-5.09253
-5.09119
-5.09003
-5.08905
-5.08823
-5.08758
-5.08709
-5.08675
-5.08657
-5.2466
-5.24376
-5.24111
-5.23867
-5.23643
-5.23437
-5.23249
-5.23079
-5.22926
-5.22789
-5.22668
-5.22562
-5.2247
-5.22392
-5.22328
-5.22276
-5.22237
-5.2221
-5.22196
-5.37519
-5.37313
-5.37122
-5.36945
-5.36782
-5.36633
-5.36496
-5.36372
-5.3626
-5.3616
-5.36072
-5.35994
-5.35927
-5.3587
-5.35822
-5.35784
-5.35756
-5.35736
-5.35725
-5.5038
-5.50251
-5.50131
-5.50019
-5.49917
-5.49823
-5.49737
-5.49658
-5.49588
-5.49524
-5.49468
-5.49419
-5.49376
-5.4934
-5.4931
-5.49286
-5.49267
-5.49255
-5.49248
-5.63247
-5.63192
-5.63142
-5.63094
-5.63051
-5.63011
-5.62975
-5.62941
-5.62911
-5.62884
-5.62861
-5.6284
-5.62821
-5.62806
-5.62793
-5.62782
-5.62775
-5.62769
-5.62766
1943.34
1932.8
1913.45
1885.11
1847.22
1799.09
1739.9
1668.59
1583.87
1484.3
1368.16
1233.66
1079.24
904.671
712.344
508.489
320.14
177.422
75.8274
29.2817
7.92452
6.08314
5.95462
1884.57
1874
1854.66
1826.31
1788.39
1740.23
1680.98
1609.57
1524.71
1424.91
1308.44
1173.4
1018.06
842.071
647.715
441.451
252.301
112.909
28.3431
11.6539
5.0936
5.48096
5.69756
1825.92
1815.31
1795.97
1767.58
1729.62
1681.37
1621.98
1550.36
1465.17
1364.87
1247.62
1111.33
953.895
774.763
575.274
361.604
168.492
41.63
6.39917
2.56066
2.09509
3.98162
4.76563
1767.38
1756.73
1737.37
1708.94
1670.91
1622.55
1562.96
1491.02
1405.34
1304.3
1185.87
1047.64
886.932
702.8
493.996
264.65
66.8457
5.50668
2.01496
1.69113
1.66627
2.80829
3.73777
1708.98
1698.29
1678.92
1650.44
1612.33
1563.82
1503.98
1431.64
1345.35
1243.37
1123.4
982.612
817.652
626.385
402.587
145.027
10.0053
1.86711
1.35635
1.46133
1.56532
2.26965
2.89654
1650.76
1640.02
1620.64
1592.13
1553.93
1505.25
1445.13
1372.34
1285.37
1182.27
1060.47
916.641
746.534
546.115
299.268
41.8426
2.71901
1.19094
1.17608
1.32783
1.47875
1.90954
2.22955
1592.77
1582
1562.61
1534.06
1495.77
1446.93
1386.51
1313.25
1225.55
1121.22
997.402
850.211
674.318
463.623
185.517
9.86705
1.21603
0.929415
1.0353
1.17987
1.32369
1.56425
1.64563
1535.05
1524.25
1504.84
1476.25
1437.88
1388.89
1328.19
1254.49
1166.05
1060.45
934.551
783.868
601.998
380.562
78.782
3.09799
0.721417
0.769317
0.90113
1.02817
1.14379
1.23335
1.04415
0.61517
0.616233
0.612486
0.604093
0.592959
0.580557
0.567805
0.555307
0.543434
0.532414
0.522391
0.51345
0.50564
0.498984
0.49349
0.48916
0.485996
0.483999
0.483149
0.555826
0.557572
0.553958
0.545495
0.534252
0.521744
0.508921
0.496377
0.484471
0.473432
0.463399
0.454452
0.446637
0.439978
0.434482
0.430154
0.426992
0.424996
0.424159
0.495776
0.499282
0.496028
0.48735
0.475802
0.463028
0.449999
0.437315
0.425321
0.414228
0.404166
0.395203
0.387379
0.380715
0.375218
0.370892
0.367734
0.365741
0.364911
0.434838
0.441606
0.438742
0.429654
0.417599
0.404382
0.391021
0.378113
0.365977
0.3548
0.344688
0.3357
0.327864
0.321194
0.315698
0.311377
0.308224
0.306233
0.305386
0.371678
0.384782
0.382182
0.372405
0.359604
0.345774
0.331962
0.318752
0.306428
0.295137
0.28496
0.275938
0.268088
0.261415
0.255924
0.251609
0.24846
0.24647
0.24565
0.304619
0.329104
0.326324
0.315543
0.301756
0.287159
0.272792
0.259213
0.24666
0.235233
0.224978
0.215917
0.208051
0.201378
0.195894
0.191587
0.188442
0.186453
0.185597
0.228801
0.2741
0.271093
0.258998
0.244005
0.228476
0.213469
0.199469
0.186656
0.175076
0.164737
0.155634
0.147753
0.14108
0.135604
0.131307
0.128173
0.126193
0.12538
0.162937
0.218824
0.216256
0.20265
0.186191
0.169647
0.153945
0.139491
0.126398
0.114654
0.104226
0.0950832
0.0871904
0.080522
0.0750566
0.0707729
0.067653
0.0656809
0.0648239
1461.36
1450.58
1431.15
1402.5
1364.03
1314.85
1253.84
1179.58
1090.18
982.975
854.404
699.171
510.624
270.345
17.1089
0.800834
0.499887
0.611018
0.726545
0.829084
0.898933
0.855066
0.129243
1340.88
1330.11
1310.72
1282.09
1243.6
1194.32
1133.03
1058.17
967.616
858.416
726.509
565.454
370.339
99.2465
1.79402
0.174851
0.271676
0.362791
0.453936
0.526067
0.557947
0.503405
0.326634
1222.78
1212.1
1192.88
1164.47
1126.24
1077.22
1016.14
941.348
850.597
740.817
607.849
444.589
247.47
11.4429
0.0236648
-0.0536808
0.0407972
0.127042
0.201581
0.258677
0.287457
0.273732
0.199173
1107.64
1097.15
1078.27
1050.34
1012.73
964.468
904.273
830.473
740.856
632.416
501.325
341.365
140.475
1.44729
-0.356923
-0.255776
-0.17654
-0.100791
-0.0366977
0.0122517
0.0395238
0.0390314
0.00962499
996.005
985.829
967.476
940.326
903.756
856.841
798.337
726.634
639.66
534.644
408.264
256.786
58.6566
-0.359295
-0.539633
-0.460508
-0.387124
-0.320182
-0.263089
-0.218489
-0.190052
-0.18053
-0.190984
888.367
878.621
861.016
834.987
799.932
754.989
699.014
630.528
547.675
448.046
328.83
189.628
11.0426
-0.696416
-0.72648
-0.661195
-0.593398
-0.532435
-0.479642
-0.437581
-0.408199
-0.392755
-0.391999
785.064
775.87
759.233
734.661
701.585
659.226
606.569
542.32
464.895
372.287
262.026
135.942
0.815942
-1.05716
-0.929993
-0.860267
-0.795624
-0.738331
-0.688338
-0.64761
-0.617156
-0.597809
-0.589944
686.297
677.772
662.305
639.489
608.825
569.627
521.013
461.884
390.945
306.602
206.533
91.9841
-0.459105
-1.24787
-1.12495
-1.05588
-0.9934
-0.938501
-0.890365
-0.850182
-0.818531
-0.796396
-0.783621
592.119
584.371
570.261
549.489
521.619
486.06
442.086
388.791
325.136
249.942
161.218
58.0866
-1.29435
-1.34218
-1.30602
-1.24656
-1.18684
-1.13363
-1.08655
-1.04636
-1.01363
-0.989218
-0.972769
502.44
495.548
482.962
464.451
439.663
408.12
369.233
322.298
266.494
200.966
124.15
32.8537
-1.66026
-1.55238
-1.49628
-1.43539
-1.37675
-1.32403
-1.27746
-1.23709
-1.20322
-1.17685
-1.15738
417.032
411.069
400.104
384.016
362.541
335.296
301.832
261.61
214.009
158.394
93.503
14.5843
-1.80356
-1.75628
-1.68621
-1.61992
-1.56202
-1.50988
-1.46344
-1.42282
-1.38795
-1.35968
-1.33775
335.574
330.567
321.318
307.763
289.727
266.951
239.097
205.79
166.583
121.005
68.1975
3.13638
-2.12498
-1.9389
-1.86057
-1.79826
-1.74251
-1.69164
-1.64525
-1.6039
-1.56816
-1.53823
-1.51419
257.646
253.578
246.055
235.082
220.538
202.272
180.098
153.792
123.068
87.5749
47.0298
-1.48919
-2.1497
-2.08335
-2.02419
-1.97162
-1.92032
-1.87022
-1.82348
-1.78112
-1.74413
-1.71275
-1.68677
182.415
179.408
173.575
165.13
154.026
140.2
123.611
104.193
81.8339
56.3211
27.9049
-2.206
-2.2692
-2.21587
-2.18456
-2.14454
-2.09697
-2.04713
-1.99872
-1.95483
-1.91626
-1.88316
-1.85545
109.947
107.801
103.624
97.5947
89.7507
80.1195
68.7847
55.8469
41.4206
25.5947
9.05849
-2.39952
-2.30553
-2.35035
-2.35602
-2.32588
-2.27641
-2.22325
-2.17181
-2.12516
-2.08447
-2.04959
-2.02034
38.8405
37.597
35.2642
31.8849
27.7777
23.0576
18.0573
13.2999
9.00648
3.8499
-0.0936373
-2.28027
-2.19613
-2.5306
-2.56562
-2.52375
-2.46191
-2.39931
-2.3421
-2.29189
-2.24869
-2.21218
-2.18159
0.751523
0.554693
-0.016446
-0.785101
-1.62008
-2.45816
-3.19069
-3.70726
-3.9243
-4.21444
-4.39887
-4.18751
-3.00197
-2.99837
-2.85241
-2.74245
-2.65013
-2.57305
-2.50834
-2.45409
-2.40868
-2.37079
-2.33912
-3.59133
-3.58202
-3.60074
-3.62056
-3.6465
-3.68237
-3.73298
-3.81523
-3.94508
-4.1598
-4.47294
-4.66085
-4.75672
-3.57157
-3.16235
-2.95704
-2.83048
-2.73902
-2.66792
-2.61066
-2.56374
-2.52498
-2.49273
-3.65476
-3.65637
-3.66547
-3.68054
-3.70019
-3.72644
-3.76409
-3.82376
-3.93101
-4.14565
-4.61703
-5.05866
-4.91136
-3.79996
-3.35305
-3.12581
-2.98735
-2.8914
-2.81831
-2.76025
-2.71323
-2.6745
-2.64243
-3.71809
-3.71792
-3.72304
-3.73202
-3.74385
-3.76039
-3.78017
-3.81322
-3.87323
-3.99599
-4.27351
-4.54375
-4.18505
-3.69178
-3.41279
-3.23675
-3.1167
-3.0279
-2.95833
-2.90262
-2.85711
-2.81946
-2.78828
-3.77548
-3.77495
-3.77773
-3.78323
-3.787
-3.79022
-3.79586
-3.80176
-3.81559
-3.83976
-3.88277
-3.88987
-3.74728
-3.5856
-3.43878
-3.32054
-3.22734
-3.15192
-3.08969
-3.03852
-2.9959
-2.96025
-2.93051
-3.83493
-3.83363
-3.8351
-3.8344
-3.83142
-3.82637
-3.8178
-3.80705
-3.79539
-3.78161
-3.7637
-3.72857
-3.66081
-3.57316
-3.48329
-3.40218
-3.33141
-3.26888
-3.21509
-3.1694
-3.13037
-3.09732
-3.06946
-3.89715
-3.89616
-3.894
-3.89042
-3.88221
-3.86987
-3.85276
-3.83207
-3.80921
-3.78271
-3.75204
-3.71432
-3.66673
-3.60948
-3.54889
-3.49031
-3.43453
-3.38301
-3.33704
-3.29657
-3.26152
-3.23149
-3.20565
-3.96435
-3.96321
-3.95908
-3.9524
-3.94123
-3.92334
-3.90151
-3.8773
-3.85203
-3.82307
-3.79098
-3.75673
-3.718
-3.67473
-3.62953
-3.58405
-3.53929
-3.49658
-3.45697
-3.42149
-3.39049
-3.36348
-3.33949
-4.03601
-4.03435
-4.02937
-4.01982
-4.00534
-3.9859
-3.96309
-3.93952
-3.91361
-3.88528
-3.85613
-3.82523
-3.79139
-3.75609
-3.72023
-3.6837
-3.6468
-3.61046
-3.5762
-3.54528
-3.5181
-3.49372
-3.47138
-4.11183
-4.10938
-4.10317
-4.09192
-4.07611
-4.05706
-4.03581
-4.01263
-3.98784
-3.96262
-3.9365
-3.90821
-3.87868
-3.84917
-3.81926
-3.78816
-3.75626
-3.72484
-3.69539
-3.66876
-3.64474
-3.62238
-3.60183
-4.19149
-4.18823
-4.1812
-4.16951
-4.15351
-4.13475
-4.11467
-4.09373
-4.07253
-4.05043
-4.02628
-4.00063
-3.97488
-3.94911
-3.9224
-3.89475
-3.86696
-3.84026
-3.81535
-3.79218
-3.77032
-3.74983
-3.73138
-4.2735
-4.26986
-4.26221
-4.25022
-4.23474
-4.21746
-4.19964
-4.18172
-4.1629
-4.14225
-4.12008
-4.09754
-4.07509
-4.052
-4.0279
-4.00361
-3.97993
-3.95736
-3.93581
-3.91498
-3.89507
-3.87671
-3.86029
-4.35851
-4.35346
-4.34496
-4.33367
-4.32054
-4.30641
-4.29146
-4.27527
-4.25745
-4.2384
-4.21892
-4.19942
-4.17937
-4.15825
-4.13656
-4.11527
-4.09477
-4.07498
-4.05579
-4.03726
-4.01974
-4.00346
-3.98841
-4.44523
-4.4399
-4.43146
-4.42139
-4.41052
-4.3988
-4.38581
-4.37132
-4.35562
-4.33924
-4.32239
-4.30475
-4.28593
-4.26634
-4.24683
-4.22802
-4.20997
-4.19256
-4.17583
-4.15983
-4.14454
-4.12974
-4.11546
-4.53286
-4.52853
-4.52162
-4.51306
-4.50345
-4.49293
-4.48143
-4.46901
-4.45573
-4.44154
-4.42622
-4.40964
-4.39224
-4.37479
-4.35786
-4.34165
-4.32609
-4.3111
-4.29663
-4.2826
-4.2688
-4.25504
-4.24165
-4.62138
-4.61885
-4.61434
-4.60808
-4.60033
-4.59134
-4.58128
-4.57023
-4.55812
-4.54486