/*--------------------------------*- C++ -*----------------------------------*\
| =========                 |                                                 |
| \\      /  F ield         | OpenFOAM: The Open Source CFD Toolbox           |
|  \\    /   O peration     | Version:  v1912                                 |
|   \\  /    A nd           | Website:  www.openfoam.com                      |
|    \\/     M anipulation  |                                                 |
\*---------------------------------------------------------------------------*/
FoamFile
{
    version     2.0;
    format      ascii;
    class       volScalarField;
    location    "0.1";
    object      p_rgh;
}
// * * * * * * * * * * * * * * * * * * * * * * * * * * * * * * * * * * * * * //

dimensions      [1 -1 -2 0 0 0 0];


internalField   nonuniform List<scalar> 
9072
(
1959.2
1953.99
1938.92
1915.15
1882.11
1839.2
1785.65
1720.55
1642.71
1550.76
1443.13
1318.03
1173.72
1009.08
825.263
625.559
424.555
257.461
135.413
57.2176
13.7266
6.43886
6.01263
1959.33
1954.06
1939
1915.22
1882.16
1839.21
1785.62
1720.44
1642.49
1550.35
1442.45
1316.93
1171.93
1006.11
820.61
618.525
415.644
248.997
123.205
42.3541
14.2362
5.42097
5.7467
1959.59
1954.22
1939.17
1915.36
1882.27
1839.26
1785.56
1720.21
1641.99
1549.45
1440.92
1314.42
1167.8
999.372
809.966
601.283
391.461
219.922
76.0477
7.85389
6.66196
4.29701
4.68994
1959.98
1954.49
1939.44
1915.61
1882.46
1839.36
1785.51
1719.9
1641.28
1548.15
1438.69
1310.69
1161.53
989.049
793.025
571.507
341.83
96.9737
9.3654
3.87773
2.05465
2.42062
3.70516
1960.55
1954.9
1939.86
1915.99
1882.78
1839.58
1785.53
1719.6
1640.49
1546.6
1435.95
1305.96
1153.49
975.591
769.518
525.199
196.513
9.5754
3.22914
1.92004
1.8214
2.07404
2.96462
1961.33
1955.5
1940.46
1916.56
1883.29
1839.96
1785.7
1719.42
1639.75
1544.98
1432.91
1300.57
1144.12
959.511
739.906
447.776
28.0579
4.09041
1.83762
1.621
1.72212
1.95883
2.44049
1962.37
1956.33
1941.29
1917.37
1884.04
1840.59
1786.1
1719.44
1639.2
1543.49
1429.82
1294.91
1134.04
941.863
704.991
256.504
8.13408
2.06623
1.44244
1.49245
1.61905
1.80292
2.0145
1963.66
1957.43
1942.39
1918.45
1885.06
1841.5
1786.8
1719.79
1638.97
1542.3
1426.99
1289.42
1123.9
924.441
663.777
74.8725
3.46798
1.37325
1.28684
1.39722
1.51478
1.62628
1.63399
0.628071
0.630864
0.629758
0.623463
0.613476
0.601559
0.588896
0.576212
0.563991
0.552521
0.541986
0.532497
0.524117
0.516881
0.510805
0.505893
0.502146
0.499567
0.498146
0.626628
0.630779
0.630069
0.62377
0.613684
0.601661
0.588901
0.576161
0.563901
0.552405
0.541857
0.53236
0.523974
0.516736
0.510658
0.505745
0.502
0.499422
0.498007
0.623624
0.630572
0.630959
0.624616
0.614244
0.601932
0.588932
0.576021
0.563648
0.552084
0.541496
0.531976
0.523579
0.516334
0.510252
0.505341
0.501599
0.499025
0.497614
0.6186
0.630452
0.632555
0.626015
0.615151
0.602351
0.588963
0.575776
0.563225
0.551551
0.540897
0.531341
0.522927
0.515673
0.50959
0.504682
0.500945
0.498374
0.496958
0.610132
0.630259
0.635021
0.628
0.616376
0.602889
0.588969
0.575409
0.562618
0.550797
0.540056
0.530453
0.522016
0.514754
0.508672
0.50377
0.500039
0.49747
0.496065
0.592807
0.630221
0.638421
0.630522
0.617856
0.603493
0.58891
0.574893
0.561808
0.54981
0.538966
0.529307
0.520844
0.513574
0.507496
0.502602
0.498878
0.496312
0.494893
0.569232
0.628126
0.64258
0.633527
0.619513
0.604089
0.588735
0.574194
0.560777
0.548578
0.537619
0.527899
0.519409
0.512134
0.506061
0.501177
0.497463
0.494906
0.49351
0.542371
0.628803
0.646794
0.636887
0.621214
0.604583
0.588382
0.573277
0.5595
0.547085
0.536003
0.526222
0.517708
0.51043
0.504366
0.499494
0.495794
0.49325
0.491839
1967.09
1959.21
1944.16
1920.18
1886.71
1843.01
1788.07
1720.64
1639.09
1541.17
1423.79
1282.77
1111.37
904.113
582.775
12.2206
1.53656
1.09912
1.17502
1.28282
1.37223
1.40777
1.20732
1973.08
1963.91
1948.91
1924.95
1891.49
1847.74
1792.63
1724.78
1642.38
1542.94
1422.96
1277.6
1099.33
876.625
180.185
2.54833
0.921359
0.947223
1.03748
1.12068
1.17674
1.17487
1.05321
1981.73
1971.01
1956.17
1932.41
1899.19
1855.71
1800.84
1733.14
1650.69
1550.89
1430.08
1283.11
1104.41
864.648
10.0991
0.880948
0.758809
0.838024
0.918551
0.985469
1.03008
1.03936
0.995949
1993.59
1981.12
1966.57
1943.22
1910.55
1867.75
1813.71
1746.95
1665.55
1566.98
1447.74
1302.66
1130.19
597.441
2.51023
0.604562
0.661641
0.740364
0.810574
0.867831
0.906747
0.920752
0.905384
2009.19
1994.81
1980.68
1957.98
1926.22
1884.61
1832.08
1767.2
1688.15
1592.58
1477.4
1337.67
1172.98
216.28
0.805676
0.512933
0.579815
0.650323
0.712654
0.763976
0.80087
0.820179
0.819616
2028.94
2012.55
1998.99
1977.23
1946.78
1906.91
1856.61
1794.58
1719.16
1628.28
1519.46
1388.52
1230.86
36.4684
0.39393
0.432849
0.501734
0.566173
0.623237
0.671046
0.706899
0.729523
0.737531
2053.08
2034.68
2021.86
2001.31
1972.57
1934.96
1887.6
1829.32
1758.69
1673.95
1573.22
1453.69
1302.73
3.04273
0.299608
0.35814
0.426095
0.487237
0.541025
0.586643
0.622253
0.64732
0.660853
2081.77
2061.38
2049.46
2030.37
2003.7
1968.87
1925.09
1871.36
1806.49
1729.02
1637.59
1530.78
1138.06
0.948944
0.223907
0.289924
0.35473
0.413381
0.465036
0.509282
0.54529
0.572289
0.589632
2114.97
2092.74
2081.85
2064.45
2040.2
2008.56
1968.9
1920.38
1862.03
1792.67
1711.36
1618.3
849.783
0.188264
0.154825
0.227163
0.287776
0.344204
0.394476
0.438116
0.474729
0.503373
0.523624
2152.55
2128.62
2118.9
2103.38
2081.79
2053.69
2018.55
1975.74
1924.45
1863.77
1792.96
1713.31
499.694
-0.087396
0.0721774
0.162147
0.223644
0.279209
0.328988
0.372395
0.409651
0.43982
0.462583
2194.22
2168.81
2160.33
2146.82
2128.08
2103.78
2073.48
2036.71
1992.86
1941.19
1880.96
1813.48
255.162
-0.0947422
0.0260734
0.102459
0.163992
0.218827
0.268209
0.311665
0.349517
0.38113
0.406148
2239.59
2212.95
2205.78
2194.39
2178.62
2158.26
2132.99
2102.46
2066.25
2023.76
1974.23
1918.37
89.7128
-0.0841514
-0.0127488
0.0515733
0.109562
0.162789
0.21147
0.255378
0.293998
0.326864
0.353808
2288.18
2260.61
2254.75
2245.5
2232.76
2216.38
2196.18
2171.96
2143.47
2110.27
2071.55
2027.18
9.57755
-0.0857487
-0.0441337
0.00722202
0.0586317
0.10951
0.158128
0.202852
0.242569
0.276746
0.305418
2339.29
2311.03
2306.49
2299.35
2289.58
2277.11
2261.89
2243.88
2222.99
2198.98
2171.17
2137.21
-0.137774
-0.10568
-0.0716447
-0.0362039
0.00845235
0.0575954
0.107151
0.153587
0.194839
0.230656
0.261052
2389.22
2363.63
2360.31
2355.11
2348.06
2339.15
2328.41
2315.93
2301.8
2286.05
2268.3
2241.63
-0.115512
-0.0808698
-0.10582
-0.0899998
-0.04736
0.0050492
0.0578257
0.10711
0.150809
0.188595
0.220594
2013.74
2405.31
2402.31
2397.71
2391.48
2383.59
2368.64
2336.99
2286.17
2207.11
2044.66
1069.4
0.622374
-0.0600091
-0.186861
-0.169843
-0.113471
-0.0500854
0.0102077
0.063989
0.110656
0.150457
0.18388
-1.00437
344.482
306.793
253.668
190.799
124.079
62.241
19.2425
-1.33264
-1.51763
-1.82406
-1.87971
47.4477
-0.591831
-0.40906
-0.29001
-0.188928
-0.1046
-0.0340037
0.0252681
0.0749176
0.11641
0.151027
-0.929145
-0.95697
-0.960317
-0.97981
-1.00193
-1.03284
-1.07481
-1.13884
-1.24248
-1.40929
-1.68131
-2.00056
43.7367
-1.32976
-0.695239
-0.414276
-0.257303
-0.151099
-0.0709634
-0.0073404
0.0444128
0.0870306
0.122347
-0.872949
-0.899818
-0.904011
-0.91661
-0.933885
-0.956626
-0.987653
-1.03444
-1.11312
-1.26154
-1.581
-1.6112
-0.940356
-1.43125
-0.779076
-0.467703
-0.293556
-0.180016
-0.0969765
-0.0320117
0.0201067
0.062731
0.0979489
-0.80548
-0.83706
-0.839133
-0.846534
-0.856603
-0.870862
-0.88857
-0.913386
-0.9574
-1.0416
-1.2301
-1.31034
-0.882073
-1.01018
-0.651719
-0.434771
-0.290696
-0.188562
-0.110245
-0.0481217
0.00209749
0.043464
0.0777094
-0.73643
-0.768635
-0.769637
-0.774484
-0.779152
-0.782257
-0.786862
-0.792274
-0.801296
-0.820165
-0.8517
-0.896549
-0.825252
-0.657259
-0.502443
-0.369784
-0.265272
-0.181733
-0.113208
-0.0568251
-0.0102089
0.0287917
0.0613422
-0.671055
-0.703068
-0.702917
-0.703877
-0.702048
-0.697849
-0.691398
-0.681368
-0.669985
-0.657964
-0.641774
-0.619207
-0.567626
-0.48736
-0.396046
-0.310047
-0.234449
-0.167834
-0.109663
-0.0600662
-0.0178663
0.0181215
0.0484178
-0.611714
-0.640387
-0.638783
-0.636076
-0.630479
-0.620181
-0.60538
-0.586401
-0.564328
-0.540187
-0.511393
-0.477905
-0.435226
-0.382656
-0.322617
-0.262877
-0.20554
-0.151734
-0.102828
-0.0596837
-0.0219471
0.0105455
0.0383018
-0.555299
-0.582411
-0.579821
-0.574509
-0.565915
-0.551429
-0.531179
-0.507788
-0.483409
-0.456396
-0.425658
-0.392581
-0.356506
-0.315128
-0.270671
-0.22509
-0.179879
-0.135947
-0.094654
-0.0570767
-0.0237616
0.00508273
0.0304605
-0.504436
-0.52867
-0.525533
-0.518357
-0.50645
-0.489319
-0.467838
-0.444632
-0.420114
-0.392827
-0.36394
-0.334239
-0.301771
-0.266973
-0.231363
-0.195175
-0.15844
-0.121614
-0.0861818
-0.0534051
-0.0244094
0.00117462
0.0245331
-0.457003
-0.478908
-0.474839
-0.466148
-0.452448
-0.434885
-0.414647
-0.392452
-0.368307
-0.343191
-0.317724
-0.290576
-0.261429
-0.231866
-0.202296
-0.171882
-0.140223
-0.108384
-0.0777438
-0.0496537
-0.0244718
-0.00135693
0.0201802
-0.412951
-0.433032
-0.428042
-0.418711
-0.404748
-0.387166
-0.367622
-0.347034
-0.325945
-0.30446
-0.281439
-0.256339
-0.230505
-0.20485
-0.178711
-0.151444
-0.123557
-0.0961606
-0.0703257
-0.0463759
-0.0238813
-0.00263911
0.016893
-0.37147
-0.389685
-0.384158
-0.374342
-0.360401
-0.343786
-0.326133
-0.308289
-0.290079
-0.270429
-0.248869
-0.226361
-0.203909
-0.181255
-0.157609
-0.133279
-0.109219
-0.0860809
-0.064079
-0.0428929
-0.0224493
-0.00323012
0.0141292
-0.332558
-0.348884
-0.341999
-0.331983
-0.319639
-0.305953
-0.29144
-0.275943
-0.258948
-0.24039
-0.221022
-0.201556
-0.181888
-0.161318
-0.139799
-0.118211
-0.0973223
-0.0771957
-0.0576982
-0.0388003
-0.0207263
-0.0038149
0.0117907
-0.294587
-0.310228
-0.303158
-0.293739
-0.283234
-0.271992
-0.259695
-0.245947
-0.230771
-0.214679
-0.198085
-0.180907
-0.162686
-0.143384
-0.123727
-0.104522
-0.0860981
-0.068368
-0.0512811
-0.0349183
-0.0192987
-0.00428207
0.0102566
-0.256916
-0.273102
-0.267327
-0.259492
-0.250367
-0.240304
-0.229297
-0.217322
-0.204472
-0.190763
-0.17604
-0.160082
-0.143002
-0.12547
-0.108227
-0.091649
-0.0757776
-0.0605175
-0.045795
-0.031571
-0.0176852
-0.00390603
0.00971196
-0.22136
-0.237167
-0.233632
-0.228212
-0.221167
-0.212764
-0.203223
-0.192676
-0.181111
-0.168429
-0.154589
-0.139795
-0.124591
-0.109545
-0.0949641
-0.0808867
-0.0672216
-0.053867
-0.0407732
-0.0278976
-0.0151582
-0.00254402
0.00972368
-0.18995
-0.204326
-0.202477
-0.199267
-0.194499
-0.188093
-0.180113
-0.170674
-0.159925
-0.148061
-0.135382
-0.122321
-0.109271
-0.0964437
-0.0838802
-0.0715157
-0.0592764
-0.0471491
-0.035204
-0.0234825
-0.0120166
-0.000910343
0.00964246
-0.162513
-0.175287
-0.173969
-0.171591
-0.167899
-0.162705
-0.155965
-0.147792
-0.138412
-0.128127
-0.11729
-0.106207
-0.095061
-0.0839327
-0.0728311
-0.061759
-0.0507533
-0.0398971
-0.0293027
-0.019036
-0.00914544
0.000292165
0.00916215
-0.137871
-0.149222
-0.147681
-0.145168
-0.141605
-0.136926
-0.131126
-0.124277
-0.116534
-0.108101
-0.0991875
-0.0899537
-0.0805105
-0.0709359
-0.0612994
-0.0516879
-0.0421998
-0.0329313
-0.0239547
-0.0152988
-0.00698892
0.000922627
0.00836724
-0.115924
-0.125779
-0.124072
-0.121457
-0.117988
-0.113703
-0.108642
-0.102867
-0.0964658
-0.0895438
-0.0822047
-0.0745425
-0.0666438
-0.0586024
-0.0505207
-0.0425009
-0.0346292
-0.0269637
-0.019533
-0.0123461
-0.00542443
0.00118772
0.00744088
-0.0968012
-0.105322
-0.103741
-0.101332
-0.0981793
-0.0943543
-0.0899288
-0.0849704
-0.0795479
-0.0737294
-0.0675868
-0.0611892
-0.0546159
-0.0479569
-0.0412971
-0.0347147
-0.0282658
-0.0219761
-0.0158574
-0.00991743
-0.00419241
0.00128799
0.00648781
-0.0798442
-0.0875262
-0.0861755
-0.0841009
-0.0813704
-0.0780538
-0.0742257
-0.069955
-0.0653129
-0.0603656
-0.0551798
-0.0498207
-0.0443607
-0.0388687
-0.0334063
-0.0280263
-0.0227602
-0.0176256
-0.0126347
-0.00779332
-0.00314027
0.00130533
0.00552778
-0.0641544
-0.0713926
-0.0702662
-0.0685259
-0.0662197
-0.0634086
-0.0601593
-0.0565391
-0.0526168
-0.0484606
-0.0441346
-0.0397012
-0.0352181
-0.0307389
-0.0263111
-0.021973
-0.0177465
-0.0136477
-0.00968761
-0.00586916
-0.00221706
0.00125095
0.00454108
-0.0491525
-0.0562085
-0.0552834
-0.0538461
-0.0519382
-0.0496139
-0.0469295
-0.0439472
-0.0407279
-0.037334
-0.0338264
-0.0302586
-0.0266799
-0.0231332
-0.0196579
-0.0162855
-0.0130351
-0.00992038
-0.00694597
-0.00411264
-0.00142202
0.00111006
0.00349826
-0.0348173
-0.0415869
-0.040865
-0.0397199
-0.0381959
-0.0363439
-0.0342127
-0.0318531
-0.0293182
-0.0266647
-0.0239462
-0.021209
-0.0184964
-0.0158461
-0.0132897
-0.0108502
-0.00854706
-0.0063885
-0.0043771
-0.00250606
-0.00076113
0.000853038
0.00236024
-0.0203393
-0.0277649
-0.0272531
-0.0263733
-0.0251936
-0.0237633
-0.0221286
-0.0203307
-0.0184188
-0.0164462
-0.0144597
-0.0125044
-0.0106133
-0.008821
-0.00715186
-0.00562202
-0.00424704
-0.00302852
-0.00196549
-0.00104585
-0.000249832
0.000446014
0.00108809
-0.176894
-0.009197
0.0786595
0.266663
0.795307
0.586021
0.539241
0.566373
0.909645
0.859993
0.821584
0.792111
0.870918
0.847436
0.823094
0.799233
0.803996
0.792138
0.77813
0.762226
0.73325
0.727938
0.72035
0.710625
0.663724
0.662712
0.659549
0.65451
0.59751
0.59963
0.599799
0.598201
0.535271
0.539746
0.542372
0.54336
0.477126
0.483248
0.487719
0.490885
0.422881
0.430244
0.436305
0.441369
0.372445
0.380959
0.388421
0.39503
0.325851
0.335444
0.344074
0.351893
0.283047
0.293558
0.303173
0.311983
0.243918
0.255222
0.265683
0.27533
0.208362
0.220363
0.231541
0.241884
0.176422
0.188933
0.200629
0.211515
0.148188
0.160952
0.172976
0.184257
0.123647
0.136435
0.148619
0.160112
0.10276
0.115371
0.127496
0.138958
0.0853601
0.0975935
0.109415
0.120592
0.0711112
0.0828209
0.0941127
0.104772
0.0596245
0.0707171
0.0812591
0.0912314
0.0505016
0.0608548
0.0704791
0.0797352
0.0432422
0.0527238
0.0614592
0.0701583
0.0372884
0.0458878
0.0540556
0.0624874
0.032227
0.0402195
0.0482602
0.0565688
0.0280356
0.035848
0.0439214
0.0519035
0.0249513
0.0327384
0.0405241
0.0477667
0.0229554
0.030388
0.0373701
0.0436019
0.0215339
0.0281171
0.0340244
0.0392801
0.0200777
0.0255807
0.0304916
0.0349791
0.018332
0.0228557
0.0269947
0.0308935
0.0163908
0.0201567
0.0236968
0.0271003
0.0144281
0.0176023
0.0206394
0.0235906
0.0125363
0.0152108
0.0177927
0.0203131
0.0107251
0.0129469
0.0150995
0.0172038
0.00896543
0.0107601
0.0125028
0.0142046
0.00721864
0.00860232
0.00994837
0.0112649
0.00544008
0.00642926
0.00739301
0.00833535
0.00358486
0.00419739
0.00479372
0.00537505
0.00160964
0.00186034
0.00210695
0.00234729
0.491506
0.633505
0.653725
0.641499
0.623412
0.604918
0.587572
0.57173
0.557483
0.544786
0.533551
0.523697
0.51516
0.507889
0.501844
0.496995
0.493319
0.490796
0.489424
0.639881
0.688587
0.67346
0.649095
0.625498
0.603933
0.584742
0.567769
0.552833
0.539746
0.52832
0.518401
0.509872
0.502648
0.496666
0.491881
0.488261
0.485782
0.484427
0.76041
0.720784
0.684349
0.651593
0.623749
0.599926
0.579448
0.561714
0.546356
0.533081
0.521615
0.511741
0.503304
0.49619
0.490317
0.485632
0.482094
0.479673
0.478351
0.767743
0.72016
0.680005
0.645414
0.616402
0.591961
0.571135
0.553223
0.537839
0.524658
0.513355
0.503674
0.495436
0.488511
0.482807
0.478266
0.474842
0.472502
0.471223
0.738748
0.698716
0.662652
0.630602
0.603129
0.579713
0.559551
0.542125
0.52718
0.514423
0.503517
0.494195
0.486278
0.479633
0.474167
0.469819
0.466545
0.464308
0.463087
0.695074
0.665329
0.636084
0.608756
0.584581
0.563425
0.544779
0.528459
0.51441
0.502408
0.492135
0.483343
0.475873
0.469603
0.464443
0.460339
0.457249
0.455138
0.453987
0.645472
0.625428
0.603551
0.581833
0.561852
0.543678
0.527148
0.512441
0.499685
0.488726
0.479298
0.471196
0.464293
0.458484
0.453697
0.449886
0.447015
0.445054
0.443985
0.59407
0.582385
0.567572
0.55161
0.53607
0.52118
0.507139
0.494412
0.48325
0.473561
0.465148
0.457868
0.451629
0.44636
0.442008
0.438536
0.435917
0.434127
0.433151
0.543095
0.538416
0.529979
0.519446
0.5082
0.49665
0.485296
0.474774
0.465397
0.457133
0.449859
0.443496
0.438002
0.433338
0.429467
0.42637
0.42403
0.422429
0.421556
0.493856
0.494947
0.491988
0.486317
0.479066
0.470785
0.462179
0.453954
0.446447
0.439684
0.433619
0.428242
0.423552
0.419535
0.41618
0.413484
0.411443
0.410042
0.409277
0.446988
0.452738
0.454385
0.452975
0.449373
0.444209
0.438301
0.432356
0.426715
0.421462
0.416631
0.41227
0.408414
0.405073
0.402256
0.39998
0.398248
0.397054
0.396401
0.402731
0.412239
0.41776
0.420048
0.419723
0.417458
0.414102
0.410329
0.406483
0.402707
0.399097
0.39575
0.392731
0.390074
0.387807
0.385958
0.38454
0.383559
0.383022
0.361233
0.373829
0.38259
0.388034
0.3906
0.390963
0.389945
0.388174
0.386005
0.383632
0.381203
0.378845
0.376648
0.374666
0.372944
0.371518
0.370415
0.369648
0.369228
0.322658
0.337788
0.349214
0.35729
0.36236
0.365052
0.366118
0.366146
0.365507
0.364439
0.363122
0.361707
0.360299
0.358969
0.357774
0.356761
0.355966
0.35541
0.355106
0.2871
0.304272
0.31783
0.328064
0.335257
0.339963
0.342843
0.344453
0.345184
0.345303
0.345011
0.344475
0.34381
0.343096
0.342401
0.341785
0.341288
0.340933
0.340738
0.254554
0.273333
0.288549
0.300514
0.309472
0.315871
0.320289
0.323259
0.325193
0.326373
0.327008
0.327273
0.327292
0.327151
0.326926
0.326682
0.326465
0.3263
0.326206
0.224925
0.244934
0.261417
0.274744
0.285124
0.2929
0.298581
0.302696
0.305666
0.307773
0.30923
0.310212
0.310848
0.311229
0.311436
0.311534
0.311574
0.311584
0.311587
0.19818
0.21899
0.236392
0.250796
0.262291
0.271131
0.277811
0.282863
0.286703
0.289604
0.291776
0.293387
0.294567
0.295413
0.296009
0.296417
0.296688
0.296856
0.296946
0.174255
0.195447
0.213468
0.228669
0.240984
0.250603
0.258039
0.263831
0.268381
0.27194
0.274718
0.276871
0.278526
0.279778
0.280712
0.281394
0.281872
0.282181
0.282348
0.153014
0.174252
0.192647
0.208369
0.221198
0.231322
0.239291
0.245644
0.25075
0.254843
0.258123
0.260723
0.262781
0.264382
0.265607
0.266525
0.267184
0.267618
0.267851
0.134311
0.155357
0.173911
0.189855
0.202886
0.213264
0.22157
0.228319
0.233842
0.238355
0.242026
0.244994
0.247379
0.249269
0.250742
0.251861
0.252674
0.253215
0.253506
0.117992
0.138696
0.157185
0.173033
0.185975
0.196385
0.204861
0.211864
0.217678
0.222496
0.226467
0.229718
0.23236
0.234481
0.236155
0.237441
0.238381
0.23901
0.23935
0.103907
0.124166
0.142322
0.157753
0.170356
0.180626
0.189133
0.196265
0.202259
0.207278
0.211457
0.214916
0.217752
0.220048
0.221876
0.223292
0.224333
0.225033
0.225414
0.0919379
0.111627
0.129124
0.143841
0.15592
0.165923
0.174345
0.181499
0.187571
0.192701
0.197008
0.2006
0.20357
0.205992
0.207931
0.209439
0.210555
0.21131
0.211723
0.0819919
0.100857
0.117342
0.13112
0.14256
0.152209
0.160454
0.167531
0.173589
0.178748
0.18311
0.186774
0.189821
0.192323
0.194334
0.195902
0.197069
0.197862
0.198295
0.073886
0.0915331
0.106701
0.119423
0.130177
0.13941
0.147402
0.154321
0.160286
0.165397
0.169751
0.173429
0.176506
0.179044
0.181092
0.182693
0.183888
0.184701
0.185145
0.0672307
0.0832565
0.0969537
0.108616
0.118679
0.127453
0.135125
0.141818
0.147623
0.152627
0.156913
0.160555
0.163616
0.166152
0.168205
0.169814
0.171017
0.171836
0.172282
0.0614538
0.0756548
0.087922
0.0985975
0.107982
0.116264
0.123563
0.129969
0.135558
0.140405
0.144575
0.148136
0.151141
0.153638
0.155666
0.157263
0.158456
0.159267
0.159709
0.0560153
0.0684967
0.0795073
0.0892862
0.0980041
0.105767
0.112652
0.118725
0.124053
0.128695
0.132709
0.13615
0.139064
0.141491
0.143469
0.14503
0.146199
0.146993
0.147427
0.0506552
0.0617089
0.0716528
0.080612
0.0886713
0.0958922
0.102329
0.108035
0.113063
0.117463
0.121284
0.124571
0.127363
0.129695
0.131601
0.133108
0.134238
0.135007
0.135427
0.0453982
0.0553009
0.0643159
0.0725044
0.0799102
0.086574
0.0925389
0.097848
0.102544
0.106671
0.110269
0.113373
0.116017
0.118231
0.120045
0.121483
0.122562
0.123297
0.123699
0.0403808
0.0492953
0.0574559
0.0648966
0.0716492
0.0777464
0.0832225
0.0881143
0.0924554
0.0962824
0.0996321
0.102529
0.105001
0.107078
0.108783
0.110136
0.111154
0.111847
0.112227
0.0356902
0.0436848
0.0510242
0.0577293
0.0638294
0.069352
0.074325
0.0787834
0.0827527
0.08626
0.0893391
0.092009
0.0942907
0.096213
0.0977935
0.0990489
0.0999956
0.100641
0.100994
0.0313405
0.0384387
0.0449683
0.0509439
0.0563916
0.061336
0.0657985
0.0698095
0.0733915
0.0765643
0.0793557
0.0817819
0.0838588
0.0856103
0.087054
0.0882029
0.0890698
0.0896614
0.0899833
0.0272933
0.0335058
0.0392341
0.0444859
0.0492812
0.0536445
0.0575927
0.0611476
0.0643303
0.067158
0.0696476
0.0718149
0.0736755
0.0752458
0.0765423
0.0775762
0.0783558
0.0788884
0.0791792
0.0234892
0.0288303
0.0337681
0.038303
0.04245
0.0462296
0.0496599
0.0527545
0.0555293
0.0580023
0.0601807
0.0620788
0.0637133
0.0650941
0.0662351
0.0671468
0.0678343
0.0683044
0.0685617
0.01987
0.0243588
0.0285154
0.0323392
0.0358455
0.0390452
0.0419552
0.0445871
0.0469488
0.0490573
0.0509187
0.0525418
0.053942
0.0551269
0.056106
0.0568899
0.0574822
0.0578862
0.0581068
0.0163756
0.0200318
0.0234259
0.0265511
0.0294216
0.0320457
0.0344364
0.0366034
0.0385507
0.0402901
0.0418279
0.0431725
0.0443336
0.0453172
0.0461308
0.0467823
0.0472748
0.0476111
0.0477945
0.0129561
0.0158001
0.0184478
0.0208875
0.0231304
0.0251874
0.0270632
0.0287632
0.0302961
0.0316659
0.0328769
0.0339396
0.0348578
0.0356362
0.0362824
0.0367982
0.0371874
0.037455
0.0376009
0.00956106
0.0116187
0.0135327
0.015301
0.0169292
0.0184253
0.0197919
0.0210302
0.0221488
0.0231485
0.024033
0.0248116
0.0254848
0.0260567
0.0265324
0.0269104
0.0271957
0.0273933
0.0275002
0.00614457
0.00743978
0.00864047
0.00975379
0.0107776
0.0117189
0.0125819
0.0133647
0.0140728
0.0147045
0.0152636
0.0157577
0.0161857
0.0165496
0.0168527
0.0170928
0.0172738
0.0174
0.0174683
0.00267055
0.00322197
0.0037284
0.00419904
0.00463198
0.00503214
0.00539814
0.00572908
0.00603164
0.00630047
0.00653745
0.0067484
0.00693103
0.00708607
0.00721631
0.00731939
0.00739598
0.00744992
0.00748038
1958.05
1947.51
1928.17
1899.82
1861.93
1813.81
1754.61
1683.3
1598.59
1499.01
1382.88
1248.37
1093.95
919.386
727.058
523.204
334.84
192.077
89.3995
30.0804
7.97254
6.09859
5.96948
1958.15
1947.58
1928.24
1899.88
1861.97
1813.8
1754.55
1683.15
1598.28
1498.48
1382.01
1246.97
1091.64
915.645
721.288
515.012
325.827
185.247
63.8936
37.6931
6.18791
5.62492
5.77642
1958.35
1947.74
1928.4
1900.01
1862.05
1813.81
1754.41
1682.79
1597.6
1497.3
1380.05
1243.76
1086.33
907.195
707.703
493.953
299.473
147.368
23.6544
6.15756
6.31371
4.20411
4.9068
1958.67
1948.02
1928.66
1900.23
1862.2
1813.84
1754.25
1682.31
1596.63
1495.59
1377.16
1238.93
1078.22
894.09
685.27
455.283
224.737
22.084
6.47583
2.35303
1.99928
3.20655
3.93246
1959.13
1948.43
1929.06
1900.59
1862.48
1813.97
1754.13
1681.79
1595.5
1493.52
1373.55
1232.76
1067.8
876.534
652.708
383.051
39.728
5.28917
2.27972
1.83297
1.85551
2.53393
3.14778
1959.77
1949.03
1929.65
1901.14
1862.94
1814.26
1754.14
1681.35
1594.37
1491.28
1369.48
1225.65
1055.54
855.123
608.273
195.9
8.09019
2.45821
1.64123
1.66533
1.79757
2.22235
2.53889
1960.64
1949.87
1930.48
1901.92
1863.63
1814.79
1754.37
1681.12
1593.41
1489.09
1365.27
1218.08
1042.19
831.491
553.271
37.2229
3.425
1.5777
1.44259
1.55496
1.69388
1.93304
2.0136
1961.78
1950.97
1931.57
1902.97
1864.61
1815.61
1754.92
1681.21
1592.77
1487.18
1361.28
1210.59
1028.72
807.288
406.285
9.73396
1.84277
1.27339
1.33789
1.4565
1.57098
1.66034
1.47091
0.629885
0.630948
0.627201
0.618807
0.607673
0.595272
0.582519
0.570022
0.558148
0.547129
0.537105
0.528165
0.520355
0.513698
0.508204
0.503875
0.500711
0.498714
0.497863
0.629399
0.631146
0.627531
0.619069
0.607825
0.595317
0.582494
0.56995
0.558044
0.547005
0.536973
0.528025
0.520211
0.513552
0.508056
0.503727
0.500565
0.498569
0.497732
0.628208
0.631714
0.62846
0.619782
0.608234
0.59546
0.582431
0.569747
0.557753
0.546661
0.536598
0.527635
0.519811
0.513147
0.50765
0.503324
0.500166
0.498173
0.497343
0.626128
0.632896
0.630033
0.620945
0.60889
0.595672
0.582311
0.569403
0.557267
0.54609
0.535979
0.52699
0.519154
0.512485
0.506989
0.502668
0.499515
0.497523
0.496676
0.621827
0.634932
0.632332
0.622555
0.609753
0.595923
0.582112
0.568902
0.556578
0.545287
0.535109
0.526088
0.518237
0.511565
0.506074
0.501759
0.498609
0.49662
0.4958
0.613627
0.638112
0.635332
0.624551
0.610764
0.596168
0.581801
0.568222
0.555668
0.544241
0.533987
0.524926
0.51706
0.510386
0.504903
0.500595
0.497451
0.495462
0.494606
0.596668
0.641968
0.63896
0.626865
0.611872
0.596343
0.581336
0.567336
0.554523
0.542943
0.532604
0.523501
0.51562
0.508948
0.503472
0.499175
0.49604
0.49406
0.493248
0.589663
0.64555
0.642982
0.629375
0.612917
0.596372
0.580671
0.566217
0.553123
0.541379
0.530952
0.521809
0.513916
0.507248
0.501782
0.497499
0.494379
0.492407
0.49155
1963.53
1952.75
1933.32
1904.67
1866.2
1817.02
1756.01
1681.75
1592.34
1485.14
1356.57
1201.34
1012.79
772.507
171.415
3.54374
1.14519
1.12582
1.22966
1.33136
1.40114
1.35726
0.631416
1968.24
1957.48
1938.08
1909.45
1870.96
1821.68
1760.39
1685.54
1594.98
1485.78
1353.87
1192.82
997.702
700.032
9.68784
1.13159
0.91607
0.991275
1.08138
1.15344
1.18531
1.13077
0.953998
1975.33
1964.66
1945.44
1917.03
1878.8
1829.78
1768.7
1693.91
1603.15
1493.37
1360.41
1197.15
1000.03
294.955
2.22802
0.742608
0.7951
0.879698
0.954145
1.01124
1.04001
1.02629
0.95173
1985.39
1974.91
1956.02
1928.09
1890.48
1842.22
1782.02
1708.22
1618.61
1510.17
1379.08
1219.12
1018.23
43.2651
0.759394
0.627096
0.701369
0.776969
0.841055
0.890004
0.917276
0.916783
0.887377
1998.95
1988.78
1970.42
1943.27
1906.7
1859.79
1801.29
1729.58
1642.61
1537.59
1411.21
1259.73
1015.3
4.20085
0.49501
0.542952
0.615838
0.682767
0.739859
0.784459
0.812896
0.822419
0.811964
2016.51
2006.77
1989.16
1963.13
1928.08
1883.13
1827.16
1758.67
1675.82
1576.19
1456.98
1317.77
728.238
1.25331
0.40472
0.466996
0.534749
0.59571
0.648503
0.690564
0.719946
0.73539
0.736146
2038.4
2029.21
2012.57
1988
1954.93
1912.57
1859.91
1795.66
1718.24
1625.63
1515.37
1389.28
354.408
0.346028
0.323632
0.393077
0.457717
0.51501
0.565002
0.60573
0.636185
0.655531
0.663396
2064.82
2056.3
2040.83
2018.02
1987.35
1948.15
1899.54
1840.41
1769.47
1685.13
1585.06
1470.51
121.744
0.148547
0.253596
0.322645
0.385126
0.440025
0.488161
0.528344
0.559995
0.58213
0.594905
2095.84
2088.09
2073.98
2053.21
2025.34
1989.78
1945.81
1892.51
1828.86
1753.66
1664.94
1561.81
18.304
0.163275
0.19772
0.257157
0.316878
0.37009
0.417167
0.457356
0.49009
0.514503
0.530952
2131.36
2124.46
2111.88
2093.37
2068.58
2037.04
1998.15
1951.21
1895.41
1829.88
1753.07
1661.77
1.21347
0.0761177
0.132637
0.193526
0.25217
0.30489
0.351452
0.391831
0.425691
0.452061
0.471538
2171.14
2165.18
2154.21
2138.13
2116.65
2089.41
2055.94
2015.72
1968.12
1912.51
1847.61
1583.57
0.219024
-0.00215578
0.0679047
0.134195
0.192088
0.244235
0.290673
0.331294
0.36616
0.394435
0.416366
2214.88
2209.87
2200.62
2187.07
2169.03
2146.26
2118.4
2085.1
2045.89
2000.31
1947.5
1415.01
-0.236229
-0.0595933
0.0187377
0.0810488
0.136794
0.187664
0.234059
0.27541
0.311143
0.341077
0.36512
2262.15
2258.08
2250.56
2239.58
2225.04
2206.77
2184.6
2158.29
2127.56
2092.07
2051.52
1047.01
-0.144903
-0.0788486
-0.0196921
0.0328819
0.0841865
0.134284
0.181019
0.223387
0.260376
0.29175
0.317734
2312.09
2309.08
2303.25
2294.8
2283.69
2269.85
2253.25
2233.81
2211.42
2185.86
2157.35
452.705
-0.139509
-0.0861722
-0.0548595
-0.0148397
0.0327255
0.082564
0.130974
0.174864
0.213439
0.246533
0.274251
2364.32
2362.16
2357.92
2351.79
2343.8
2333.96
2322.34
2309.02
2294.08
2277.6
2259.46
175.221
-0.0506417
-0.0954593
-0.101131
-0.0709903
-0.0215139
0.031644
0.0830805
0.129731
0.170422
0.205304
0.234554
2405.66
2403.98
2400.33
2394.88
2387.86
2379.09
2355.73
2316.75
2251.13
2167.84
1934.99
242.388
0.184
-0.150515
-0.185531
-0.143667
-0.0818201
-0.0192238
0.0379872
0.0881982
0.131398
0.167912
0.198493
350.536
330.267
285.397
225.443
159.668
94.227
39.2689
4.00891
-1.41902
-1.70915
-1.89281
38.4347
2.64556
-0.493171
-0.347131
-0.237172
-0.144847
-0.0677633
-0.00305767
0.0511942
0.0966054
0.134497
0.166163
-0.960849
-0.951546
-0.970259
-0.990078
-1.01602
-1.05189
-1.10252
-1.18477
-1.3146
-1.52932
-1.84204
-2.02337
13.3215
-0.939998
-0.531872
-0.326561
-0.200004
-0.108539
-0.0374462
0.0198213
0.0667398
0.105503
0.137744
-0.899087
-0.900697
-0.909794
-0.924865
-0.944513
-0.970765
-1.00843
-1.0681
-1.17533
-1.38971
-1.83407
-0.785446
3.37753
-1.04428
-0.59738
-0.370136
-0.231678
-0.135725
-0.0626359
-0.0045727
0.0424402
0.0811746
0.113247
-0.837217
-0.837048
-0.842174
-0.851153
-0.86298
-0.879521
-0.899301
-0.932348
-0.99236
-1.1151
-1.39218
-0.883178
-1.30396
-0.81091
-0.531922
-0.35588
-0.235829
-0.147035
-0.0774654
-0.0217559
0.0237586
0.0614054
0.0925857
-0.76942
-0.768882
-0.771668
-0.777169
-0.780935
-0.784161
-0.789793
-0.795692
-0.809531
-0.833693
-0.876702
-0.882497
-0.741145
-0.579535
-0.432713
-0.314473
-0.221275
-0.145861
-0.0836253
-0.0324574
0.0101606
0.0458167
0.0755564
-0.703686
-0.702385
-0.703852
-0.703153
-0.700175
-0.695117
-0.686555
-0.675804
-0.66414
-0.650357
-0.632454
-0.597314
-0.529565
-0.441911
-0.352043
-0.270934
-0.200157
-0.137627
-0.0838438
-0.0381515
0.000883993
0.0339278
0.0617857
-0.640703
-0.639714
-0.637557
-0.633979
-0.625767
-0.613428
-0.59632
-0.575623
-0.552764
-0.526264
-0.495601
-0.457874
-0.410282
-0.353033
-0.292446
-0.233864
-0.178087
-0.126567
-0.0805953
-0.0401215
-0.00507099
0.0249536
0.0507918
-0.582712
-0.58157
-0.57744
-0.570763
-0.559593
-0.541702
-0.519867
-0.495658
-0.470387
-0.441427
-0.409344
-0.37509
-0.336357
-0.293088
-0.247891
-0.202409
-0.15765
-0.114942
-0.0753303
-0.0398456
-0.00884896
0.0181589
0.042152
-0.529178
-0.527512
-0.522534
-0.512987
-0.498508
-0.479065
-0.456252
-0.432686
-0.406779
-0.378442
-0.349292
-0.318394
-0.284556
-0.249256
-0.213395
-0.176862
-0.139967
-0.10362
-0.0693616
-0.0384424
-0.0112685
0.0131145
0.0354513
-0.479803
-0.477348
-0.471142
-0.459894
-0.444081
-0.425034
-0.403776
-0.380599
-0.355814
-0.330594
-0.304472
-0.276181
-0.246649
-0.217143
-0.187231
-0.156131
-0.124231
-0.0928128
-0.0633558
-0.0367271
-0.0127137
0.00964508