/*--------------------------------*- C++ -*----------------------------------*\
| =========                 |                                                 |
| \\      /  F ield         | OpenFOAM: The Open Source CFD Toolbox           |
|  \\    /   O peration     | Version:  v1912                                 |
|   \\  /    A nd           | Website:  www.openfoam.com                      |
|    \\/     M anipulation  |                                                 |
\*---------------------------------------------------------------------------*/
FoamFile
{
    version     2.0;
    format      ascii;
    class       surfaceScalarField;
    location    "0.1";
    object      phi;
}
// * * * * * * * * * * * * * * * * * * * * * * * * * * * * * * * * * * * * * //

dimensions      [0 3 -1 0 0 0 0];
oriented        oriented;


internalField   nonuniform List<scalar> 
17936
(
1.20671e-06
-2.4273e-06
1.22059e-06
-2.70238e-06
4.13101e-06
-1.42863e-06
-5.5272e-06
6.93052e-06
-1.40332e-06
-8.35259e-06
9.7968e-06
-1.44421e-06
-1.12662e-05
1.27644e-05
-1.4982e-06
-1.42955e-05
1.58639e-05
-1.56845e-06
-1.74745e-05
1.91322e-05
-1.65769e-06
-2.08423e-05
2.26102e-05
-1.76793e-06
-2.44418e-05
2.63435e-05
-1.90166e-06
-2.83217e-05
3.03832e-05
-2.06146e-06
-3.25348e-05
3.47838e-05
-2.24897e-06
-3.71382e-05
3.96045e-05
-2.46631e-06
-4.21889e-05
4.48922e-05
-2.70333e-06
-4.77078e-05
5.06348e-05
-2.92702e-06
-5.3693e-05
5.69062e-05
-3.21325e-06
-6.02317e-05
6.34791e-05
-3.24742e-06
-6.63136e-05
6.83741e-05
-2.06047e-06
-6.94347e-05
6.95593e-05
-1.2463e-07
-6.9216e-05
6.90235e-05
1.92537e-07
-6.94525e-05
6.98616e-05
-4.09123e-07
-6.70271e-05
5.84469e-05
8.58022e-06
-4.63579e-05
3.27204e-05
1.36375e-05
-2.13652e-05
1.09823e-05
1.03829e-05
3.6485e-06
-4.86977e-06
1.22127e-06
-2.72125e-06
4.15978e-06
2.86965e-06
-4.30818e-06
-5.56672e-06
6.97948e-06
2.81829e-06
-4.23105e-06
-8.41044e-06
9.86327e-06
2.89973e-06
-4.35256e-06
-1.1341e-05
1.28473e-05
3.00755e-06
-4.51381e-06
-1.43861e-05
1.59618e-05
3.14779e-06
-4.72348e-06
-1.7579e-05
1.92427e-05
3.32573e-06
-4.98937e-06
-2.09579e-05
2.27302e-05
3.54552e-06
-5.3178e-06
-2.45653e-05
2.64695e-05
3.8122e-06
-5.71639e-06
-2.84492e-05
3.05111e-05
4.13078e-06
-6.1927e-06
-3.26627e-05
3.49115e-05
4.50555e-06
-6.75437e-06
-3.72636e-05
3.97248e-05
4.9366e-06
-7.39777e-06
-4.23085e-05
4.50248e-05
5.41998e-06
-8.1363e-06
-4.78601e-05
5.07904e-05
5.86474e-06
-8.79496e-06
-5.38182e-05
5.69809e-05
6.37964e-06
-9.54237e-06
-6.02764e-05
6.35751e-05
6.51692e-06
-9.81567e-06
-6.66342e-05
6.92622e-05
4.52517e-06
-7.15316e-06
-7.14906e-05
7.35146e-05
9.81164e-07
-3.00523e-06
-7.5283e-05
7.60633e-05
-4.98844e-07
-2.81463e-07
-7.51787e-05
7.48647e-05
2.45418e-06
-2.14027e-06
-7.71293e-05
8.09649e-05
-7.39006e-06
3.55445e-06
-8.02437e-05
7.08322e-05
-2.47429e-05
3.41544e-05
-5.27741e-05
2.74739e-05
-3.24367e-05
5.7737e-05
6.09092e-06
-7.31129e-06
1.22037e-06
-2.7122e-06
4.14272e-06
5.74324e-06
-7.17376e-06
-5.54354e-06
6.95017e-06
5.64118e-06
-7.0478e-06
-8.37442e-06
9.82e-06
5.80218e-06
-7.24776e-06
-1.129e-05
1.27879e-05
6.01637e-06
-7.5143e-06
-1.43178e-05
1.58839e-05
6.29491e-06
-7.86101e-06
-1.74907e-05
1.9143e-05
6.64792e-06
-8.30022e-06
-2.08459e-05
2.26048e-05
7.08403e-06
-8.84289e-06
-2.44253e-05
2.63138e-05
7.61344e-06
-9.50195e-06
-2.82768e-05
3.03211e-05
8.24656e-06
-1.02908e-05
-3.24544e-05
3.46844e-05
8.9946e-06
-1.12246e-05
-3.70175e-05
3.94628e-05
9.85128e-06
-1.22966e-05
-4.20371e-05
4.47463e-05
1.085e-05
-1.35592e-05
-4.75678e-05
5.04859e-05
1.17184e-05
-1.46364e-05
-5.35431e-05
5.6823e-05
1.2749e-05
-1.60289e-05
-6.03387e-05
6.39574e-05
1.32546e-05
-1.68733e-05
-6.74596e-05
7.06694e-05
9.95987e-06
-1.31696e-05
-7.34614e-05
7.57059e-05
4.89172e-06
-7.13617e-06
-7.74302e-05
7.87448e-05
2.14567e-06
-3.46033e-06
-7.87478e-05
7.44237e-05
-1.03953e-06
5.36366e-06
-6.77657e-05
6.40556e-05
-1.77614e-06
5.48622e-06
-6.24312e-05
5.53468e-05
-4.16482e-05
4.87326e-05
-3.73092e-05
1.71532e-05
-8.20847e-05
0.000102241
8.53038e-06
-9.7479e-06
1.21752e-06
-2.69749e-06
4.11598e-06
8.5987e-06
-1.00172e-05
-5.5069e-06
6.90403e-06
8.45004e-06
-9.84716e-06
-8.31825e-06
9.75307e-06
8.68836e-06
-1.01232e-05
-1.12115e-05
1.26971e-05
9.00654e-06
-1.04922e-05
-1.4214e-05
1.5766e-05
9.42061e-06
-1.09727e-05
-1.73578e-05
1.89939e-05
9.94499e-06
-1.15811e-05
-2.06794e-05
2.24194e-05
1.0593e-05
-1.2333e-05
-2.42196e-05
2.60864e-05
1.13803e-05
-1.32471e-05
-2.80263e-05
3.00463e-05
1.23238e-05
-1.43437e-05
-3.21545e-05
3.43586e-05
1.34425e-05
-1.56465e-05
-3.6666e-05
3.90903e-05
1.47322e-05
-1.71565e-05
-4.165e-05
4.4342e-05
1.62614e-05
-1.89535e-05
-4.714e-05
5.00609e-05
1.75517e-05
-2.04725e-05
-5.32135e-05
5.67235e-05
1.94109e-05
-2.2921e-05
-6.05914e-05
6.46777e-05
2.07157e-05
-2.4802e-05
-6.88231e-05
7.28271e-05
1.67983e-05
-2.08023e-05
-7.62854e-05
7.85338e-05
9.72361e-06
-1.1972e-05
-7.87871e-05
7.6925e-05
3.42624e-06
-1.56414e-06
-7.33024e-05
6.82485e-05
-7.60602e-06
1.26599e-05
-6.05003e-05
4.91609e-05
-1.61094e-05
2.74489e-05
-3.55453e-05
2.31733e-05
-5.85121e-05
7.0884e-05
-1.33613e-05
6.18506e-06
-0.000116505
0.000123681
1.09634e-05
-1.21762e-05
1.21283e-06
-2.67722e-06
4.07978e-06
1.14283e-05
-1.28308e-05
-5.45735e-06
6.84179e-06
1.12384e-05
-1.26228e-05
-8.24275e-06
9.66342e-06
1.15514e-05
-1.29721e-05
-1.11068e-05
1.25764e-05
1.19703e-05
-1.34399e-05
-1.40761e-05
1.561e-05
1.25163e-05
-1.40502e-05
-1.71823e-05
1.87976e-05
1.32074e-05
-1.48227e-05
-2.04606e-05
2.21765e-05
1.40616e-05
-1.57776e-05
-2.39509e-05
2.57901e-05
1.51008e-05
-1.694e-05
-2.77006e-05
2.96898e-05
1.6349e-05
-1.83382e-05
-3.17663e-05
3.39379e-05
1.78349e-05
-2.00064e-05
-3.62141e-05
3.86131e-05
1.95681e-05
-2.19671e-05
-4.11528e-05
4.38229e-05
2.16336e-05
-2.43037e-05
-4.66113e-05
4.95909e-05
2.34137e-05
-2.63934e-05
-5.2923e-05
5.6718e-05
2.65756e-05
-3.03707e-05
-6.09468e-05
6.55406e-05
2.91459e-05
-3.37396e-05
-7.02756e-05
7.436e-05
2.50401e-05
-2.91245e-05
-7.57733e-05
7.46158e-05
1.2587e-05
-1.14296e-05
-7.10083e-05
6.46784e-05
-2.61409e-06
8.94395e-06
-5.57734e-05
4.52823e-05
-2.10434e-05
3.15345e-05
-3.42858e-05
2.27363e-05
-3.94112e-05
5.09608e-05
-1.12181e-05
2.81832e-06
-8.20391e-05
9.04389e-05
-6.77526e-07
1.27138e-06
-0.000125658
0.000125064
1.33858e-05
-1.45917e-05
1.2059e-06
-2.65084e-06
4.03434e-06
1.42242e-05
-1.56077e-05
-5.39553e-06
6.76418e-06
1.39998e-05
-1.53684e-05
-8.14881e-06
9.55216e-06
1.43845e-05
-1.57878e-05
-1.09772e-05
1.24275e-05
1.49002e-05
-1.63505e-05
-1.39069e-05
1.54193e-05
1.55736e-05
-1.7086e-05
-1.69689e-05
1.856e-05
1.64261e-05
-1.80172e-05
-2.01975e-05
2.18866e-05
1.748e-05
-1.9169e-05
-2.36328e-05
2.54428e-05
1.87642e-05
-2.05742e-05
-2.73233e-05
2.92822e-05
2.03115e-05
-2.22704e-05
-3.1329e-05
3.34721e-05
2.21627e-05
-2.43058e-05
-3.57233e-05
3.81044e-05
2.43563e-05
-2.67374e-05
-4.06306e-05
4.32905e-05
2.69684e-05
-2.96284e-05
-4.60984e-05
4.91697e-05
2.94224e-05
-3.24937e-05
-5.26699e-05
5.66815e-05
3.42831e-05
-3.82946e-05
-6.12238e-05
6.6092e-05
3.85372e-05
-4.34054e-05
-7.03169e-05
7.13084e-05
3.19387e-05
-3.29301e-05
-6.95059e-05
6.48482e-05
8.52147e-06
-3.86375e-06
-5.7284e-05
4.72562e-05
-1.72955e-05
2.73232e-05
-3.62225e-05
2.59103e-05
-4.26226e-05
5.29348e-05
-1.6859e-05
8.71626e-06
-6.11232e-05
6.9266e-05
-2.01073e-06
-9.51115e-07
-9.58519e-05
9.88137e-05
-2.2211e-07
1.20282e-06
-0.00012379
0.000122809
1.57941e-05
-1.69934e-05
1.19931e-06
-2.62118e-06
3.98375e-06
1.6981e-05
-1.83435e-05
-5.32667e-06
6.6779e-06
1.67284e-05
-1.80796e-05
-8.04482e-06
9.4299e-06
1.7182e-05
-1.8567e-05
-1.0836e-05
1.22668e-05
1.77909e-05
-1.92216e-05
-1.37258e-05
1.5217e-05
1.85876e-05
-2.00788e-05
-1.67446e-05
1.83128e-05
1.95966e-05
-2.11649e-05
-1.99266e-05
2.15911e-05
2.08456e-05
-2.25102e-05
-2.3312e-05
2.50958e-05
2.23711e-05
-2.41549e-05
-2.69494e-05
2.88805e-05
2.42161e-05
-2.61471e-05
-3.08987e-05
3.30121e-05
2.64359e-05
-2.85494e-05
-3.52341e-05
3.75866e-05
2.91077e-05
-3.14603e-05
-4.00779e-05
4.26985e-05
3.22754e-05
-3.48961e-05
-4.54933e-05
4.85999e-05
3.559e-05
-3.86966e-05
-5.21723e-05
5.63485e-05
4.23976e-05
-4.65738e-05
-6.09836e-05
6.51924e-05
4.80695e-05
-5.22783e-05
-6.62057e-05
6.4373e-05
3.25655e-05
-3.07329e-05
-5.92004e-05
5.09023e-05
-2.62156e-06
1.09197e-05
-4.04309e-05
2.99143e-05
-3.81527e-05
4.86693e-05
-2.12287e-05
1.47288e-05
-6.15507e-05
6.80506e-05
-9.70648e-06
5.68525e-06
-7.52331e-05
7.92543e-05
-3.08066e-06
2.6653e-06
-0.000100161
0.000100576
-3.5907e-06
3.34878e-06
-0.00012246
0.000122702
1.81909e-05
-1.93872e-05
1.19633e-06
-2.58935e-06
3.92785e-06
1.96946e-05
-2.10332e-05
-5.25121e-06
6.58399e-06
1.94219e-05
-2.07546e-05
-7.93218e-06
9.29803e-06
1.99428e-05
-2.13087e-05
-1.06843e-05
1.20945e-05
2.06424e-05
-2.20526e-05
-1.3532e-05
1.50006e-05
2.15593e-05
-2.30279e-05
-1.65042e-05
1.80471e-05
2.27213e-05
-2.42642e-05
-1.96339e-05
2.12694e-05
2.41613e-05
-2.57968e-05
-2.2959e-05
2.47087e-05
2.59232e-05
-2.76729e-05
-2.65251e-05
2.84154e-05
2.80598e-05
-2.99501e-05
-3.03889e-05
3.24531e-05
3.06405e-05
-3.27047e-05
-3.46233e-05
3.69202e-05
3.37875e-05
-3.60844e-05
-3.93385e-05
4.18734e-05
3.74779e-05
-4.00127e-05
-4.46154e-05
4.77121e-05
4.18048e-05
-4.49015e-05
-5.12677e-05
5.53818e-05
5.07554e-05
-5.48695e-05
-5.9473e-05
6.11234e-05
5.53986e-05
-5.70491e-05
-5.9685e-05
5.44141e-05
2.72006e-05
-2.19297e-05
-4.54646e-05
3.46559e-05
-2.0773e-05
3.15817e-05
-2.47738e-05
1.77287e-05
-5.77912e-05
6.48363e-05
-1.33846e-05
1.06802e-05
-7.24806e-05
7.51849e-05
-8.74354e-06
7.39994e-06
-8.17369e-05
8.30805e-05
-6.91706e-06
7.48488e-06
-0.000100443
9.98755e-05
-8.29741e-06
7.97321e-06
-0.000123344
0.000123669
5.72624e-07
-1.24149e-06
6.68861e-07
-1.39117e-06
2.21725e-06
-8.26074e-07
-2.98675e-06
3.64818e-06
-6.61427e-07
-4.17229e-06
4.55853e-06
-3.8624e-07
-4.82028e-06
4.97682e-06
-1.56549e-07
-5.04596e-06
5.04344e-06
2.51336e-09
-4.98557e-06
4.88727e-06
9.83046e-08
-4.75847e-06
4.60686e-06
1.51611e-07
-4.43817e-06
4.25674e-06
1.81431e-07
-4.06547e-06
3.86691e-06
1.98565e-07
-3.66294e-06
3.45528e-06
2.07658e-07
-3.24543e-06
3.03458e-06
2.10853e-07
-2.82369e-06
2.61331e-06
2.10378e-07
-2.40408e-06
2.19606e-06
2.08017e-07
-1.98959e-06
1.78463e-06
2.04962e-07
-1.58122e-06
1.37924e-06
2.01979e-07
-1.17861e-06
9.7916e-07
1.99447e-07
-7.80872e-07
5.83401e-07
1.97471e-07
-3.85456e-07
1.89665e-07
1.95791e-07
1.8848e-06
-2.4736e-06
5.888e-07
-1.61476e-06
2.61067e-06
1.78921e-06
-2.78512e-06
-3.53293e-06
4.31835e-06
1.42869e-06
-2.21412e-06
-4.93795e-06
5.39292e-06
8.38591e-07
-1.29356e-06
-5.70067e-06
5.88445e-06
3.42961e-07
-5.26741e-07
-5.96763e-06
5.97175e-06
9.69527e-09
-1.38217e-08
-5.91335e-06
5.80545e-06
-1.97551e-07
3.05455e-07
-5.65888e-06
5.48266e-06
-3.22448e-07
4.98668e-07
-5.28397e-06
5.06847e-06
-3.93355e-07
6.08855e-07
-4.84061e-06
4.60384e-06
-4.32912e-07
6.69688e-07
-4.36095e-06
4.11399e-06
-4.53127e-07
7.00089e-07
-3.86464e-06
3.61424e-06
-4.60301e-07
7.10694e-07
-3.36366e-06
3.1137e-06
-4.59618e-07
7.09576e-07
-2.86486e-06
2.61744e-06
-4.54762e-07
7.02177e-07
-2.37165e-06
2.12765e-06
-4.48285e-07
6.92291e-07
-1.88533e-06
1.64471e-06
-4.41814e-07
6.8243e-07
-1.40561e-06
1.16788e-06
-4.36278e-07
6.74005e-07
-9.31334e-07
6.95747e-07
-4.31875e-07
6.67461e-07
-4.61246e-07
2.26877e-07
-4.2915e-07
6.63519e-07
2.9866e-06
-3.39224e-06
4.05636e-07
-1.54014e-06
2.65448e-06
3.83013e-06
-4.94447e-06
-3.67218e-06
4.50037e-06
3.01846e-06
-3.84666e-06
-5.12382e-06
5.56281e-06
1.74305e-06
-2.18204e-06
-5.84683e-06
6.0054e-06
7.0038e-07
-8.58952e-07
-6.0649e-06
6.0475e-06
8.459e-09
8.94199e-09
-5.97013e-06
5.84651e-06
-4.2084e-07
5.44453e-07
-5.68745e-06
5.50142e-06
-6.7939e-07
8.65421e-07
-5.29504e-06
5.0736e-06
-8.26943e-07
1.04838e-06
-4.8412e-06
4.60111e-06
-9.0781e-07
1.1479e-06
-4.3559e-06
4.10745e-06
-9.47537e-07
1.19599e-06
-3.85728e-06
3.60651e-06
-9.61018e-07
1.21178e-06
-3.35593e-06
3.10617e-06
-9.59183e-07
1.20894e-06
-2.85771e-06
2.61077e-06
-9.49202e-07
1.19614e-06
-2.36554e-06
2.12212e-06
-9.35921e-07
1.17934e-06
-1.88043e-06
1.64044e-06
-9.22651e-07
1.16264e-06
-1.40197e-06
1.16486e-06
-9.11403e-07
1.14851e-06
-9.28992e-07
6.9383e-07
-9.02817e-07
1.13798e-06
-4.59778e-07
2.26378e-07
-8.978e-07
1.1312e-06
3.64894e-06
-3.7007e-06
5.17573e-08
-1.37607e-06
2.7311e-06
6.15696e-06
-7.51199e-06
-3.92591e-06
4.82006e-06
4.70499e-06
-5.59914e-06
-5.43826e-06
5.84164e-06
2.60566e-06
-3.00904e-06
-6.08087e-06
6.19534e-06
9.97785e-07
-1.11225e-06
-6.21543e-06
6.16497e-06
-4.14829e-08
9.19378e-08
-6.06046e-06
5.91497e-06
-6.78324e-07
8.2381e-07
-5.73854e-06
5.53876e-06
-1.05795e-06
1.25772e-06
-5.32152e-06
5.09154e-06
-1.27392e-06
1.5039e-06
-4.85249e-06
4.60732e-06
-1.39051e-06
1.63568e-06
-4.35836e-06
4.10722e-06
-1.4458e-06
1.69695e-06
-3.85517e-06
3.60317e-06
-1.46315e-06
1.71514e-06
-3.35181e-06
3.10162e-06
-1.45891e-06
1.70909e-06
-2.85298e-06
2.60605e-06
-1.44305e-06
1.68997e-06
-2.36098e-06
2.11784e-06
-1.42256e-06
1.6657e-06
-1.8765e-06
1.63694e-06
-1.40235e-06
1.64191e-06
-1.39893e-06
1.16233e-06
-1.38522e-06
1.62182e-06
-9.26999e-07
6.92982e-07
-1.37259e-06
1.60661e-06
-4.59716e-07
2.26733e-07
-1.36395e-06
1.59693e-06
3.39275e-06
-2.48167e-06
-9.11077e-07
-9.31325e-07
2.83838e-06
9.08219e-06
-1.09892e-05
-4.36425e-06
5.33164e-06
6.53023e-06
-7.49762e-06
-5.90837e-06
6.23983e-06
3.38283e-06
-3.7143e-06
-6.40556e-06
6.45368e-06
1.19662e-06
-1.24473e-06
-6.41807e-06
6.32197e-06
-1.63557e-07
2.59662e-07
-6.18073e-06
6.00603e-06
-9.8281e-07
1.15751e-06
-5.80652e-06
5.58861e-06
-1.46598e-06
1.6839e-06
-5.35713e-06
5.11606e-06
-1.73907e-06
1.98014e-06
-4.86841e-06
4.6167e-06
-1.88376e-06
2.13547e-06
-4.36281e-06
4.10807e-06
-1.94965e-06
2.2044e-06
-3.85345e-06
3.59967e-06
-1.96795e-06
2.22172e-06
-3.34714e-06
3.09624e-06
-1.9596e-06
2.21051e-06
-2.84723e-06
2.60021e-06
-1.93697e-06
2.184e-06
-2.35525e-06
2.11239e-06
-1.90871e-06
2.15157e-06
-1.87146e-06
1.63239e-06
-1.88127e-06
2.12034e-06
-1.39494e-06
1.15889e-06
-1.85832e-06
2.09438e-06
-9.24045e-07
6.89679e-07
-1.84085e-06
2.07521e-06
-4.56317e-07
2.24133e-07
-1.83015e-06
2.06234e-06
8.49725e-07
1.08404e-06
-1.93376e-06
1.0192e-09
3.01581e-06
1.34086e-05
-1.64255e-05
-5.10068e-06
6.11123e-06
8.49672e-06
-9.50727e-06
-6.56088e-06
6.75909e-06
3.98839e-06
-4.1866e-06
-6.81388e-06
6.77164e-06
1.25045e-06
-1.2082e-06
-6.66473e-06
6.51152e-06
-3.82996e-07
5.36208e-07
-6.32521e-06
6.11498e-06
-1.34947e-06
1.55971e-06
-5.88753e-06
5.64778e-06
-1.91252e-06
2.15227e-06
-5.39935e-06
5.14517e-06
-2.22768e-06
2.48185e-06
-4.88743e-06
4.62801e-06
-2.39099e-06
2.65041e-06
-4.36828e-06
4.10919e-06
-2.46128e-06
2.72036e-06
-3.85143e-06
3.59545e-06
-2.47665e-06
2.73263e-06
-3.34145e-06
3.08963e-06
-2.462e-06
2.71383e-06
-2.84013e-06
2.59295e-06
-2.43116e-06
2.67835e-06
-2.34811e-06
2.10558e-06
-2.3943e-06
2.63683e-06
-1.86516e-06
1.62672e-06
-2.35915e-06
2.59759e-06
-1.38999e-06
1.15478e-06
-2.32996e-06
2.56516e-06
-9.20919e-07
6.88602e-07
-2.3086e-06
2.54091e-06
-4.56859e-07
2.25441e-07
-2.29365e-06
2.52507e-06
-1.96937e-06
-8.81382e-09
1.97819e-06
-1.79661e-06
4.68767e-06
1.9744e-05
-2.26351e-05
-6.50661e-06
7.23479e-06
1.046e-05
-1.11881e-05
-7.40763e-06
7.39173e-06
4.28689e-06
-4.271e-06
-7.29344e-06
7.13833e-06
1.11202e-06
-9.56908e-07
-6.946e-06
6.72591e-06
-7.21668e-07
9.41753e-07
-6.48757e-06
6.23676e-06
-1.78949e-06
2.0403e-06
-5.97763e-06
5.71326e-06
-2.40389e-06
2.66825e-06
-5.44578e-06
5.17693e-06
-2.74303e-06
3.01188e-06
-4.90795e-06
4.63998e-06
-2.91383e-06
3.18181e-06
-4.3738e-06
4.1099e-06
-2.98167e-06
3.24557e-06
-3.84862e-06
3.59014e-06
-2.9898e-06
3.24829e-06
-3.33444e-06
3.08154e-06
-2.96621e-06
3.21911e-06
-2.83147e-06
2.58412e-06
-2.92566e-06
3.17301e-06
-2.33944e-06
2.09733e-06
-2.87924e-06
3.12135e-06
-1.85752e-06
1.61983e-06
-2.83578e-06
3.07347e-06
-1.38393e-06
1.14954e-06
-2.80012e-06
3.03451e-06
-9.16369e-07
6.83536e-07
-2.77335e-06
3.00618e-06
-4.51562e-07
2.21244e-07
-2.75627e-06
2.98659e-06
-1.51535e-05
6.21096e-06
8.94255e-06
-9.11627e-06
9.21039e-06
2.42456e-05
-2.43397e-05
-8.7867e-06
8.55812e-06
1.14705e-05
-1.12419e-05
-8.34425e-06
8.08871e-06
4.13303e-06
-3.87749e-06
-7.81558e-06
7.53406e-06
7.39859e-07
-4.58342e-07
-7.24601e-06
6.95307e-06
-1.19752e-06
1.49046e-06
-6.65842e-06
6.36394e-06
-2.31281e-06
2.60729e-06
-6.07102e-06
5.78052e-06
-2.9456e-06
3.2361e-06
-5.49286e-06
5.20846e-06
-3.28849e-06
3.57289e-06
-4.9276e-06
4.65056e-06
-3.45446e-06
3.7315e-06
-4.37762e-06
4.1087e-06
-3.5121e-06
3.78102e-06
-3.84379e-06
3.58273e-06
-3.50814e-06
3.7692e-06
-3.32527e-06
3.07127e-06
-3.47264e-06
3.72665e-06
-2.82064e-06
2.57317e-06
-3.42043e-06
3.66789e-06
-2.32876e-06
2.08723e-06
-3.3632e-06
3.60474e-06
-1.84822e-06
1.61151e-06
-3.31069e-06
3.54741e-06
-1.3767e-06
1.14357e-06
-3.26821e-06
3.50134e-06
-9.11838e-07
6.81534e-07
-3.23786e-06
3.46817e-06
-4.51358e-07
2.22074e-07
-3.21613e-06
3.44541e-06
2.19014e-05
-2.43901e-05
2.48868e-06
-5.40565e-06
8.17177e-06
2.23588e-05
-2.51249e-05
-1.09197e-05
1.36919e-05
2.20767e-05
-2.48489e-05
-1.64943e-05
1.93314e-05
2.26632e-05
-2.55003e-05
-2.22093e-05
2.51345e-05
2.34504e-05
-2.63756e-05
-2.81142e-05
3.11553e-05
2.44828e-05
-2.75239e-05
-3.42658e-05
3.74536e-05
2.57916e-05
-2.89794e-05
-4.07275e-05
4.40968e-05
2.74143e-05
-3.07836e-05
-4.7572e-05
5.11645e-05
2.94012e-05
-3.29937e-05
-5.4887e-05
5.87539e-05
3.1815e-05
-3.56819e-05
-6.2782e-05
6.69853e-05
3.47382e-05
-3.89414e-05
-7.13991e-05
7.60574e-05
3.83456e-05
-4.30038e-05
-8.0921e-05
8.6e-05
4.24964e-05
-4.75753e-05
-9.15783e-05
9.81256e-05
4.7966e-05
-5.45133e-05
-0.000105808
0.000113226
5.8791e-05
-6.62088e-05
-0.000117325
0.000113758
5.75561e-05
-5.39893e-05
-0.000101054
7.90406e-05
1.45345e-05
7.47918e-06
-5.5685e-05
3.8319e-05
-4.22579e-05
5.96239e-05
-2.87051e-05
2.44091e-05
-6.95428e-05
7.38388e-05
-2.27518e-05
2.21039e-05
-7.6602e-05
7.725e-05
-2.19845e-05
2.27036e-05
-8.36043e-05
8.28852e-05
-2.48886e-05
2.92216e-05
-9.88555e-05
9.45225e-05
-3.5993e-05
4.8063e-05
-0.000124087
0.000112017
2.6847e-05
-2.92652e-05
2.41821e-06
-5.1812e-06
7.80491e-06
2.78239e-05
-3.04476e-05
-1.04252e-05
1.30701e-05
2.75601e-05
-3.0205e-05
-1.57412e-05
1.84416e-05
2.8272e-05
-3.09724e-05
-2.11767e-05
2.39525e-05
2.92293e-05
-3.2005e-05
-2.67748e-05
2.96494e-05
3.04853e-05
-3.33599e-05
-3.25828e-05
3.55816e-05
3.20764e-05
-3.50752e-05
-3.86527e-05
4.18036e-05
3.40483e-05
-3.71992e-05
-4.50423e-05
4.83778e-05
3.64633e-05
-3.97988e-05
-5.18194e-05
5.53776e-05
3.94018e-05
-4.296e-05
-5.90646e-05
6.28887e-05
4.29651e-05
-4.67893e-05
-6.68827e-05
7.10476e-05
4.74306e-05
-5.15955e-05
-7.53292e-05
7.9827e-05
5.23829e-05
-5.68807e-05
-8.4916e-05
9.09868e-05
6.08149e-05
-6.68857e-05
-9.71731e-05
0.000100304
7.22806e-05
-7.54115e-05
-9.5588e-05
7.94544e-05
4.52603e-05
-2.91267e-05
-5.42923e-05
3.42686e-05
-3.21795e-05
5.22032e-05
-2.40964e-05
2.07522e-05
-6.89222e-05
7.22665e-05
-2.05091e-05
2.14387e-05
-7.43994e-05
7.34698e-05
-2.28426e-05
2.46213e-05
-7.63016e-05
7.45229e-05
-2.70207e-05
3.04767e-05
-8.03975e-05
7.69415e-05
-3.56099e-05
4.29954e-05
-8.74986e-05
8.0113e-05
-5.36243e-05
6.78134e-05
-9.40987e-05
7.99096e-05
3.16393e-05
-3.39632e-05
2.32395e-06
-4.91586e-06
7.37618e-06
3.29915e-05
-3.54518e-05
-9.84898e-06
1.23457e-05
3.27782e-05
-3.52749e-05
-1.48635e-05
1.74048e-05
3.35957e-05
-3.6137e-05
-1.99745e-05
2.25773e-05
3.46969e-05
-3.72998e-05
-2.52179e-05
2.79008e-05
3.61414e-05
-3.88243e-05
-3.06306e-05
3.34122e-05
3.79683e-05
-4.07499e-05
-3.62506e-05
3.91507e-05
4.02279e-05
-4.31281e-05
-4.21179e-05
4.51577e-05
4.29901e-05
-4.60299e-05
-4.82755e-05
5.1477e-05
4.63442e-05
-4.95456e-05
-5.47682e-05
5.81514e-05
5.03982e-05
-5.37813e-05
-6.16513e-05
6.52345e-05
5.54763e-05
-5.90595e-05
-6.88558e-05
7.27225e-05
6.10577e-05
-6.49244e-05
-7.73108e-05
8.23517e-05
7.26071e-05
-7.7648e-05
-8.54488e-05
8.12604e-05
7.46427e-05
-7.04544e-05
-6.52508e-05
3.94083e-05
6.05156e-06
1.97909e-05
-2.29953e-05
1.73964e-05
-6.46959e-05
7.02948e-05
-1.70779e-05
1.82183e-05
-7.24215e-05
7.12812e-05
-1.97112e-05
2.14165e-05
-7.19756e-05
7.02703e-05
-2.33864e-05
2.57369e-05
-7.233e-05
6.99796e-05
-2.86085e-05
3.21631e-05
-7.3246e-05
6.96914e-05
-3.65705e-05
4.19823e-05
-7.368e-05
6.82682e-05
-4.83591e-05
5.54723e-05
-6.98177e-05
6.27045e-05
3.6232e-05
-3.84401e-05
2.20809e-06
-4.61225e-06
6.89677e-06
3.78255e-05
-4.011e-05
-9.20621e-06
1.15371e-05
3.76907e-05
-4.00215e-05
-1.38836e-05
1.6248e-05
3.85917e-05
-4.09561e-05
-1.86343e-05
2.10461e-05
3.98089e-05
-4.22207e-05
-2.34866e-05
2.59587e-05
4.14036e-05
-4.38758e-05
-2.84656e-05
3.10104e-05
4.34149e-05
-4.59596e-05
-3.35957e-05
3.62243e-05
4.58943e-05
-4.85229e-05
-3.88985e-05
4.16205e-05
4.89125e-05
-5.16346e-05
-4.43919e-05
4.72133e-05
5.25584e-05
-5.53799e-05
-5.00852e-05
5.30036e-05
5.69328e-05
-5.98512e-05
-5.59838e-05
5.89612e-05
6.23389e-05
-6.53163e-05
-6.19235e-05
6.52224e-05
6.84986e-05
-7.17976e-05
-6.91833e-05
7.2369e-05
8.18073e-05
-8.4993e-05
-7.00487e-05
5.7389e-05
6.28077e-05
-5.0148e-05
-3.16917e-05
1.67694e-05
-4.19588e-05
5.68811e-05
-1.33011e-05
1.42109e-05
-7.14564e-05
7.05467e-05
-1.57939e-05
1.7364e-05
-6.977e-05
6.81999e-05
-1.8979e-05
2.07473e-05
-6.85038e-05
6.67355e-05
-2.27358e-05
2.49982e-05
-6.76285e-05
6.53661e-05
-2.75829e-05
3.05319e-05
-6.64086e-05
6.34597e-05
-3.38459e-05
3.74926e-05
-6.37775e-05
6.01309e-05
-4.13099e-05
4.49165e-05
-5.77152e-05
5.41086e-05
4.0583e-05
-4.26557e-05
2.07275e-06
-4.27753e-06
6.37809e-06
4.23034e-05
-4.4404e-05
-8.51203e-06
1.06635e-05
4.22641e-05
-4.44156e-05
-1.28255e-05
1.50001e-05
4.32269e-05
-4.54014e-05
-1.71903e-05
1.93984e-05
4.45318e-05
-4.67399e-05
-2.16263e-05
2.38757e-05
4.62376e-05
-4.8487e-05
-2.61482e-05
2.8445e-05
4.83812e-05
-5.06781e-05
-3.07672e-05
3.3115e-05
5.10115e-05
-5.33593e-05
-3.54883e-05
3.78867e-05
5.41946e-05
-5.6593e-05
-4.03081e-05
4.27495e-05
5.801e-05
-6.04514e-05
-4.52067e-05
4.7671e-05
6.25395e-05
-6.50038e-05
-5.01508e-05
5.25579e-05
6.80011e-05
-7.04082e-05
-5.49635e-05
5.78409e-05
7.48564e-05
-7.77338e-05
-6.07373e-05
6.12884e-05
8.68808e-05
-8.74319e-05
-5.38811e-05
3.01499e-05
3.18859e-05
-8.15476e-06
-1.35673e-05
1.01906e-05
-6.52604e-05
6.86371e-05
-1.13713e-05
1.29881e-05
-6.89653e-05
6.73485e-05
-1.44859e-05
1.59674e-05
-6.66706e-05
6.51891e-05
-1.75189e-05
1.91868e-05
-6.50069e-05
6.33389e-05
-2.09926e-05
2.29533e-05
-6.32427e-05
6.12821e-05
-2.50749e-05
2.7347e-05
-6.08621e-05
5.859e-05
-2.97322e-05
3.216e-05
-5.71762e-05
5.47485e-05
-3.45247e-05
3.66593e-05
-5.13658e-05
4.92312e-05
4.46545e-05
-4.65755e-05
1.92094e-06
-3.919e-06
5.83042e-06
4.64105e-05
-4.83219e-05
-7.77989e-06
9.7423e-06
4.64735e-05
-4.84359e-05
-1.17106e-05
1.36866e-05
4.74775e-05
-4.94535e-05
-1.56723e-05
1.76689e-05
4.88429e-05
-5.08395e-05
-1.96773e-05
2.16979e-05
5.06224e-05
-5.26429e-05
-2.37309e-05
2.57763e-05
5.28491e-05
-5.48945e-05
-2.78334e-05
2.9901e-05
5.55664e-05
-5.7634e-05
-3.19771e-05
3.4059e-05
5.88314e-05
-6.09133e-05
-3.61423e-05
3.82218e-05
6.27086e-05
-6.47881e-05
-4.02899e-05
4.23356e-05
6.72533e-05
-6.9299e-05
-4.43605e-05
4.62593e-05
7.25517e-05
-7.44505e-05
-4.82198e-05
5.06421e-05
8.03891e-05
-8.28114e-05
-5.23681e-05
4.9036e-05
8.63435e-05
-8.30113e-05
-3.35915e-05
1.25981e-05
-1.68858e-05
3.78792e-05
-7.54929e-06
8.54712e-06
-6.90323e-05
6.80345e-05
-1.00659e-05
1.14164e-05
-6.58591e-05
6.45085e-05
-1.2744e-05
1.41127e-05
-6.37645e-05
6.23959e-05
-1.55392e-05
1.70357e-05
-6.17538e-05
6.02573e-05
-1.8604e-05
2.02441e-05
-5.94845e-05
5.78443e-05
-2.19474e-05
2.36911e-05
-5.66026e-05
5.48589e-05
-2.54378e-05
2.71327e-05
-5.27307e-05
5.10358e-05
-2.87032e-05
3.0063e-05
-4.75475e-05
4.61877e-05
4.84158e-05
-5.01724e-05
1.75652e-06
-3.54503e-06
5.26516e-06
5.01379e-05
-5.1858e-05
-7.02463e-06
8.79226e-06
5.03014e-05
-5.2069e-05
-1.05618e-05
1.23349e-05
5.13283e-05
-5.31013e-05
-1.41125e-05
1.58948e-05
5.27291e-05
-5.45114e-05
-1.76817e-05
1.94729e-05
5.45485e-05
-5.63397e-05
-2.12675e-05
2.30645e-05
5.68149e-05
-5.86119e-05
-2.48621e-05
2.66579e-05
5.95643e-05
-6.13601e-05
-2.84488e-05
3.0231e-05
6.28428e-05
-6.46249e-05
-3.19988e-05
3.37461e-05
6.66973e-05
-6.84447e-05
-3.54638e-05
3.71419e-05
7.11545e-05
-7.28326e-05
-3.87765e-05
4.02676e-05
7.61293e-05
-7.76204e-05
-4.19363e-05
4.37531e-05
8.49394e-05
-8.67563e-05
-4.41127e-05
3.72372e-05
7.73278e-05
-7.04522e-05
-1.35412e-05
4.7518e-06
-5.25392e-05
6.13286e-05
-5.45264e-06
7.06795e-06
-6.64641e-05
6.48488e-05
-8.34387e-06
9.54669e-06
-6.32546e-05
6.20518e-05
-1.07618e-05
1.20072e-05
-6.10892e-05
5.98438e-05
-1.32851e-05
1.45955e-05
-5.88562e-05
5.75458e-05
-1.59352e-05
1.72971e-05
-5.63491e-05
5.49873e-05
-1.86685e-05
2.00286e-05
-5.33241e-05
5.19639e-05
-2.13484e-05
2.25906e-05
-4.95942e-05
4.8352e-05
-2.37129e-05
2.46688e-05
-4.50601e-05
4.41041e-05
5.18437e-05
-5.34273e-05
1.58365e-06
-3.16238e-06
4.69132e-06
5.34823e-05
-5.50113e-05
-6.25795e-06
7.82847e-06
5.37379e-05
-5.53084e-05
-9.39766e-06
1.09668e-05
5.47721e-05
-5.63413e-05
-1.2536e-05
1.41048e-05
5.61864e-05
-5.77552e-05
-1.56722e-05
1.72373e-05
5.8017e-05
-5.95821e-05
-1.87986e-05
2.03543e-05
6.02869e-05
-6.18427e-05
-2.19022e-05
2.34392e-05
6.30246e-05
-6.45616e-05
-2.49618e-05
2.64656e-05
6.62649e-05
-6.77687e-05
-2.79449e-05
2.93934e-05
7.00381e-05
-7.14867e-05
-3.08017e-05
3.21628e-05
7.43465e-05
-7.57077e-05
-3.34643e-05
3.46329e-05
7.89404e-05
-8.0109e-05
-3.60547e-05
3.72432e-05
8.82277e-05
-8.94162e-05
-3.5726e-05
2.266e-05
6.16673e-05
-4.86013e-05
-3.80596e-06
2.51565e-06
-6.55545e-05
6.68448e-05
-4.16903e-06
5.37942e-06
-6.33486e-05
6.21382e-05
-6.45411e-06
7.54393e-06
-6.09157e-05
5.98259e-05
-8.64604e-06
9.76436e-06
-5.86621e-05
5.75438e-05
-1.0894e-05
1.20325e-05
-5.63246e-05
5.51861e-05
-1.31747e-05
1.43144e-05
-5.37434e-05
5.26037e-05
-1.54384e-05
1.653e-05
-5.07508e-05
4.96592e-05
-1.75679e-05
1.85289e-05
-4.72665e-05
4.63055e-05
-1.93886e-05
2.01199e-05
-4.32766e-05
4.25454e-05
5.49224e-05
-5.63277e-05
1.40531e-06
-2.77735e-06
4.1166e-06
5.64451e-05
-5.77844e-05
-5.49033e-06
6.86414e-06
5.67804e-05
-5.81542e-05
-8.23419e-06
9.60119e-06
5.7809e-05
-5.9176e-05
-1.09645e-05
1.23231e-05
5.92183e-05
-6.05769e-05
-1.36756e-05
1.50206e-05
6.10363e-05
-6.23813e-05
-1.63563e-05
1.76804e-05
6.32813e-05
-6.46054e-05
-1.89905e-05
2.02836e-05
6.59748e-05
-6.72679e-05
-2.15561e-05
2.2804e-05
6.91418e-05
-7.03897e-05
-2.40221e-05
2.52051e-05
7.27984e-05
-7.39814e-05
-2.63435e-05
2.7434e-05
7.69278e-05
-7.80183e-05
-2.84529e-05
2.93681e-05
8.11412e-05
-8.20564e-05
-3.05422e-05
3.11233e-05
9.03146e-05
-9.08956e-05
-2.5135e-05
5.49679e-06
3.10774e-05
-1.14391e-05
2.85481e-07
1.30095e-06
-6.67275e-05
6.51411e-05
-2.56278e-06
3.48844e-06
-6.10993e-05
6.01737e-05
-4.44979e-06
5.44364e-06
-5.88019e-05
5.78081e-05
-6.4432e-06
7.44723e-06
-5.64875e-05
5.54835e-05
-8.44756e-06
9.44118e-06
-5.41237e-05
5.31301e-05
-1.04256e-05
1.13939e-05
-5.15555e-05
5.05872e-05
-1.23359e-05
1.32396e-05
-4.86702e-05
4.77664e-05
-1.40912e-05
1.48752e-05
-4.54424e-05
4.46584e-05
-1.5577e-05
1.61805e-05
-4.18876e-05
4.12841e-05
5.76429e-05
-5.88677e-05
1.22476e-06
-2.39507e-06
3.54815e-06
5.90301e-05
-6.01832e-05
-4.73092e-06
5.9108e-06
5.94305e-05
-6.06104e-05
-7.08502e-06
8.25375e-06
6.04432e-05
-6.1612e-05
-9.41573e-06
1.05698e-05
6.18324e-05
-6.29864e-05
-1.17138e-05
1.28464e-05
6.3619e-05
-6.47516e-05
-1.39651e-05
1.50681e-05
6.58176e-05
-6.69206e-05
-1.61527e-05
1.72163e-05
6.84445e-05
-6.95081e-05
-1.82556e-05
1.92679e-05
7.15176e-05
-7.25299e-05
-2.02489e-05
2.11954e-05
7.5043e-05
-7.59895e-05
-2.21e-05
2.29644e-05
7.89908e-05
-7.98553e-05
-2.376e-05
2.45126e-05
8.2876e-05
-8.36286e-05
-2.54068e-05
2.54053e-05
9.11668e-05
-9.11654e-05
-1.90465e-05
-1.8913e-06
-8.6559e-06
2.95937e-05
2.75853e-06
-5.16603e-07
-6.28351e-05
6.05931e-05
-4.27561e-07
1.3869e-06
-5.9225e-05
5.82657e-05
-2.34349e-06
3.28417e-06
-5.68479e-05
5.59072e-05
-4.20917e-06
5.11591e-06
-5.45309e-05
5.36242e-05
-6.00526e-06
6.87979e-06
-5.21988e-05
5.13243e-05
-7.73818e-06
8.57515e-06
-4.96892e-05
4.88522e-05
-9.38352e-06
1.01554e-05
-4.69342e-05
4.61623e-05
-1.08817e-05
1.15523e-05
-4.39366e-05
4.3266e-05
-1.21581e-05
1.26894e-05
-4.07226e-05
4.01913e-05
6.00024e-05
-6.10473e-05
1.04482e-06
-2.01978e-06
2.9911e-06
6.12449e-05
-6.22162e-05
-3.98681e-06
4.97756e-06
6.16951e-05
-6.26859e-05
-5.96113e-06
6.93736e-06
6.26837e-05
-6.36599e-05
-7.90437e-06
8.86048e-06
6.40406e-05
-6.49967e-05
-9.80382e-06
1.07322e-05
6.57811e-05
-6.67095e-05
-1.16435e-05
1.25354e-05
6.7917e-05
-6.88089e-05
-1.34056e-05
1.42516e-05
7.04617e-05
-7.13077e-05
-1.50713e-05
1.58624e-05
7.34302e-05
-7.42214e-05
-1.6623e-05
1.73521e-05
7.6826e-05
-7.75551e-05
-1.80457e-05
1.87119e-05
8.06187e-05
-8.12849e-05
-1.93195e-05
1.99482e-05
8.43178e-05
-8.49464e-05
-2.05341e-05
1.98741e-05
9.0885e-05
-9.0225e-05
-7.62301e-06
-5.25049e-06
-4.82174e-05
6.10909e-05
3.36939e-06
-2.68645e-06
-5.91799e-05
5.8497e-05
1.6217e-06
-6.60855e-07
-5.72465e-05
5.62856e-05
-2.70428e-07
1.16305e-06
-5.49956e-05
5.4103e-05
-2.01248e-06
2.82822e-06
-5.27635e-05
5.19478e-05
-3.617e-06
4.38477e-06
-5.05018e-05
4.9734e-05
-5.13463e-06
5.86609e-06
-4.80715e-05
4.734e-05
-6.57433e-06
7.25292e-06
-4.54412e-05
4.47626e-05
-7.89422e-06
8.49253e-06
-4.26349e-05
4.20366e-05
-9.04196e-06
9.53394e-06
-3.96837e-05
3.91917e-05
6.20024e-05
-6.28699e-05
8.67582e-07
-1.65489e-06
2.4494e-06
6.30984e-05
-6.38929e-05
-3.26456e-06
4.07171e-06
6.35839e-05
-6.4391e-05
-4.87209e-06
5.66212e-06
6.4542e-05
-6.53321e-05
-6.44224e-06
7.20818e-06
6.58566e-05
-6.66226e-05
-7.95966e-06
8.69253e-06
6.75388e-05
-6.82717e-05
-9.40604e-06
1.00961e-05
6.95985e-05
-7.02886e-05
-1.07616e-05
1.13991e-05
7.20483e-05
-7.26857e-05
-1.20074e-05
1.25846e-05
7.49049e-05
-7.54821e-05
-1.31309e-05
1.36477e-05
7.81781e-05
-7.86948e-05
-1.41346e-05
1.46073e-05
8.18548e-05
-8.23275e-05
-1.50346e-05
1.55395e-05
8.55165e-05
-8.60213e-05
-1.57782e-05
1.32592e-05
8.89217e-05
-8.64027e-05
1.47892e-05
-1.1861e-05
-6.62967e-05
6.33685e-05
7.11606e-06
-5.25946e-06
-5.73739e-05
5.55173e-05
3.7182e-06
-2.57965e-06
-5.52322e-05
5.40936e-05
1.63271e-06