/*--------------------------------*- C++ -*----------------------------------*\
| =========                 |                                                 |
| \\      /  F ield         | OpenFOAM: The Open Source CFD Toolbox           |
|  \\    /   O peration     | Version:  v1912                                 |
|   \\  /    A nd           | Website:  www.openfoam.com                      |
|    \\/     M anipulation  |                                                 |
\*---------------------------------------------------------------------------*/
FoamFile
{
    version     2.0;
    format      ascii;
    class       volVectorField;
    location    "0.1";
    object      U;
}
// * * * * * * * * * * * * * * * * * * * * * * * * * * * * * * * * * * * * * //

dimensions      [0 1 -1 0 0 0 0];


internalField   nonuniform List<vector> 
9072
(
(0.0136661 -0.0195952 0)
(0.0778477 -0.00765564 0)
(0.142209 -0.00751577 0)
(0.207106 -0.0077338 0)
(0.274217 -0.00802274 0)
(0.34414 -0.00840016 0)
(0.417688 -0.00887832 0)
(0.495775 -0.00946978 0)
(0.579415 -0.0101883 0)
(0.669749 -0.0110486 0)
(0.767992 -0.0120564 0)
(0.875461 -0.0132332 0)
(0.993418 -0.0144823 0)
(1.12189 -0.0156729 0)
(1.2614 -0.017476 0)
(1.41257 -0.0173346 0)
(1.54215 -0.0097251 0)
(1.59037 -0.000168234 0)
(1.56709 0.00257789 0)
(1.55377 0.00463271 0)
(1.44315 0.071864 0)
(0.948282 0.104331 0)
(0.369163 0.0499147 0)
(0.0135668 -0.045955 0)
(0.0784691 -0.038725 0)
(0.143202 -0.0380324 0)
(0.208515 -0.0391305 0)
(0.276004 -0.0405848 0)
(0.346279 -0.0424757 0)
(0.420132 -0.0448732 0)
(0.498457 -0.0478348 0)
(0.582254 -0.0514263 0)
(0.67266 -0.0557198 0)
(0.770903 -0.0607857 0)
(0.87828 -0.0665779 0)
(0.996215 -0.0731492 0)
(1.12561 -0.0791071 0)
(1.26374 -0.0857821 0)
(1.41355 -0.0878395 0)
(1.55344 -0.0629324 0)
(1.65554 -0.0193648 0)
(1.73555 0.00759658 0)
(1.70391 -0.0318718 0)
(1.79723 0.048673 0)
(1.78436 0.292634 0)
(0.933824 0.462766 0)
(0.0134758 -0.0722977 0)
(0.0782352 -0.0696992 0)
(0.142584 -0.068467 0)
(0.207601 -0.0704171 0)
(0.274731 -0.0730137 0)
(0.344597 -0.0763901 0)
(0.417972 -0.0806684 0)
(0.495733 -0.0859539 0)
(0.578865 -0.0923683 0)
(0.668507 -0.100045 0)
(0.765915 -0.10914 0)
(0.872435 -0.119523 0)
(0.989932 -0.131727 0)
(1.11874 -0.142208 0)
(1.25816 -0.154979 0)
(1.41784 -0.161901 0)
(1.57772 -0.123816 0)
(1.70522 -0.0647434 0)
(1.78623 -0.0312766 0)
(1.784 0.031726 0)
(1.47883 0.0318008 0)
(1.44064 0.463856 0)
(0.589792 1.00451 0)
(0.0133825 -0.0986216 0)
(0.0778224 -0.100454 0)
(0.141632 -0.0987312 0)
(0.206202 -0.101509 0)
(0.272807 -0.105219 0)
(0.342077 -0.110049 0)
(0.414768 -0.116166 0)
(0.491735 -0.123723 0)
(0.573945 -0.132905 0)
(0.662538 -0.143918 0)
(0.758804 -0.157012 0)
(0.864172 -0.172093 0)
(0.980988 -0.190036 0)
(1.10881 -0.205145 0)
(1.25247 -0.228021 0)
(1.42747 -0.245022 0)
(1.6138 -0.204812 0)
(1.77573 -0.124438 0)
(1.79653 -0.0320576 0)
(1.6238 0.0978066 0)
(1.26837 0.221466 0)
(0.690858 0.708237 0)
(0.189021 1.30974 0)
(0.013296 -0.124843 0)
(0.0772228 -0.130902 0)
(0.140346 -0.128753 0)
(0.20432 -0.132329 0)
(0.270234 -0.137117 0)
(0.338725 -0.143359 0)
(0.410529 -0.151261 0)
(0.48647 -0.161027 0)
(0.567502 -0.172907 0)
(0.654759 -0.18719 0)
(0.74958 -0.204243 0)
(0.85353 -0.224127 0)
(0.969438 -0.247881 0)
(1.09692 -0.268614 0)
(1.24857 -0.306907 0)
(1.43673 -0.339498 0)
(1.64512 -0.297048 0)
(1.74768 -0.130517 0)
(1.56718 0.0573029 0)
(1.16057 0.282003 0)
(0.645687 0.494092 0)
(0.150329 0.941556 0)
(0.0269326 1.3584 0)
(0.0131968 -0.150958 0)
(0.0764395 -0.160983 0)
(0.138748 -0.158475 0)
(0.201981 -0.162815 0)
(0.26706 -0.168635 0)
(0.334621 -0.176239 0)
(0.405386 -0.185865 0)
(0.480164 -0.197769 0)
(0.559911 -0.212275 0)
(0.6458 -0.229775 0)
(0.739268 -0.250784 0)
(0.842091 -0.275695 0)
(0.957391 -0.305383 0)
(1.08589 -0.334004 0)
(1.24449 -0.391431 0)
(1.4379 -0.444104 0)
(1.64286 -0.353909 0)
(1.5593 -0.0733653 0)
(1.2075 0.237206 0)
(0.702087 0.518485 0)
(0.283204 0.707919 0)
(-0.00867882 1.0544 0)
(0.0298276 1.32961 0)
(0.0131412 -0.176871 0)
(0.0755458 -0.190593 0)
(0.136967 -0.187805 0)
(0.199394 -0.192885 0)
(0.263606 -0.199704 0)
(0.330236 -0.208632 0)
(0.399992 -0.21994 0)
(0.473686 -0.233941 0)
(0.552275 -0.251044 0)
(0.63693 -0.271754 0)
(0.729093 -0.296749 0)
(0.830585 -0.32683 0)
(0.944299 -0.362507 0)
(1.0724 -0.400831 0)
(1.23135 -0.479905 0)
(1.42604 -0.543227 0)
(1.51849 -0.344901 0)
(1.28713 0.0688977 0)
(0.797958 0.47069 0)
(0.399252 0.70475 0)
(0.168547 0.838046 0)
(0.0565897 1.08384 0)
(0.0925735 1.32136 0)
(0.0132082 -0.20281 0)
(0.0745361 -0.219777 0)
(0.135036 -0.216788 0)
(0.19661 -0.222587 0)
(0.259921 -0.230374 0)
(0.325569 -0.240583 0)
(0.394236 -0.253524 0)
(0.4667 -0.269565 0)
(0.543861 -0.289189 0)
(0.626821 -0.313011 0)
(0.716948 -0.341863 0)
(0.816094 -0.377036 0)
(0.926449 -0.418189 0)
(1.05264 -0.46772 0)
(1.20283 -0.570952 0)
(1.38899 -0.611969 0)
(1.3327 -0.26991 0)
(0.922437 0.280521 0)
(0.468272 0.66749 0)
(0.268636 0.800404 0)
(0.180452 0.891032 0)
(0.162257 1.08129 0)
(0.205367 1.33195 0)
(0.00711495 -0.00881974 0)
(0.0411778 -0.00355716 0)
(0.0760051 -0.00282043 0)
(0.100006 -0.00160999 0)
(0.112117 -0.000634892 0)
(0.115388 4.64916e-05 0)
(0.112797 0.000446274 0)
(0.106969 0.000659905 0)
(0.0992879 0.000782231 0)
(0.0905642 0.000854821 0)
(0.0812623 0.000892539 0)
(0.0716912 0.000905231 0)
(0.0620666 0.000903187 0)
(0.0525127 0.000894082 0)
(0.0430839 0.000882397 0)
(0.0337943 0.000870759 0)
(0.0246312 0.000860855 0)
(0.0155694 0.000853842 0)
(0.00658028 0.000846908 0)
(0.00569518 -0.0211706 0)
(0.0483198 -0.0220173 0)
(0.0900562 -0.0176235 0)
(0.118422 -0.010374 0)
(0.132636 -0.00424632 0)
(0.136537 -0.000137015 0)
(0.133926 0.00243002 0)
(0.127285 0.00397886 0)
(0.11823 0.00486365 0)
(0.107833 0.00535139 0)
(0.0967527 0.00559517 0)
(0.0853783 0.00568081 0)
(0.0739435 0.00567147 0)
(0.0625827 0.00561292 0)
(0.0513604 0.00553515 0)
(0.0402956 0.0054568 0)
(0.029376 0.00538878 0)
(0.0185716 0.00533577 0)
(0.0078707 0.00528666 0)
(0.00238726 -0.0310823 0)
(0.048079 -0.042516 0)
(0.0939389 -0.0332919 0)
(0.12255 -0.0190235 0)
(0.135681 -0.00756447 0)
(0.13851 -1.9144e-05 0)
(0.135031 0.00468113 0)
(0.127811 0.00750275 0)
(0.118406 0.0091029 0)
(0.107804 0.0099756 0)
(0.0966168 0.0104052 0)
(0.0852022 0.0105514 0)
(0.0737661 0.0105271 0)
(0.0624228 0.0104159 0)
(0.0512261 0.0102714 0)
(0.0401898 0.010126 0)
(0.0292992 0.0100017 0)
(0.0185256 0.00991035 0)
(0.00784024 0.00987481 0)
(-0.00489067 -0.0358352 0)
(0.0472844 -0.0659627 0)
(0.100884 -0.0499226 0)
(0.129419 -0.0273465 0)
(0.140512 -0.0103266 0)
(0.141554 0.0006124 0)
(0.136836 0.00727097 0)
(0.128811 0.0112344 0)
(0.118908 0.0134846 0)
(0.108005 0.0146904 0)
(0.0966442 0.015258 0)
(0.0851407 0.0154341 0)
(0.0736676 0.0153826 0)
(0.062316 0.0152128 0)
(0.0511263 0.0149971 0)
(0.0401059 0.0147833 0)
(0.0292363 0.0146002 0)
(0.0184867 0.0144636 0)
(0.00786076 0.0143607 0)
(-0.0204695 -0.029002 0)
(0.0444399 -0.0965711 0)
(0.112473 -0.0680293 0)
(0.139378 -0.0344906 0)
(0.147132 -0.0118773 0)
(0.145621 0.00202272 0)
(0.139227 0.0103767 0)
(0.130138 0.015289 0)
(0.119583 0.0180542 0)
(0.10829 0.0195091 0)
(0.0967027 0.0201666 0)
(0.0850786 0.0203452 0)
(0.0735505 0.0202479 0)
(0.062182 0.020009 0)
(0.0509977 0.0197171 0)
(0.0399961 0.0194323 0)
(0.0291517 0.0191923 0)
(0.0184265 0.0190153 0)
(0.00776211 0.0189126 0)
(-0.0479011 0.000625535 0)
(0.0376668 -0.143211 0)
(0.131243 -0.0873326 0)
(0.152646 -0.0398974 0)
(0.155347 -0.0120631 0)
(0.150543 0.00441493 0)
(0.142089 0.0140945 0)
(0.131719 0.0197189 0)
(0.120385 0.0228622 0)
(0.108629 0.0244762 0)
(0.0967744 0.0251582 0)
(0.0850051 0.0252966 0)
(0.0734077 0.0251317 0)
(0.062016 0.0248101 0)
(0.0508371 0.0244326 0)
(0.0398586 0.0240711 0)
(0.0290472 0.0237683 0)
(0.0183643 0.0235469 0)
(0.0078199 0.0234014 0)
(-0.0130168 0.0242898 0)
(0.0779153 -0.20897 0)
(0.16015 -0.105745 0)
(0.169108 -0.0417553 0)
(0.164876 -0.0101382 0)
(0.156126 0.00802936 0)
(0.145286 0.0185695 0)
(0.133468 0.0246155 0)
(0.121261 0.0279368 0)
(0.108986 0.0295923 0)
(0.0968366 0.0302341 0)
(0.0849071 0.0302926 0)
(0.0732309 0.0300328 0)
(0.0618121 0.0296124 0)
(0.0506407 0.0291405 0)
(0.0396906 0.0286968 0)
(0.028918 0.0283302 0)
(0.01827 0.0280615 0)
(0.00766715 0.0278774 0)
(0.168006 -0.115962 0)
(0.214194 -0.237933 0)
(0.196495 -0.111655 0)
(0.187234 -0.0391232 0)
(0.175198 -0.00596269 0)
(0.162073 0.012985 0)
(0.148645 0.0238527 0)
(0.135281 0.0299981 0)
(0.12215 0.0333097 0)
(0.109325 0.0348876 0)
(0.0968623 0.0354109 0)
(0.0847672 0.0353404 0)
(0.0730098 0.0349577 0)
(0.0615634 0.0344202 0)
(0.0504031 0.033841 0)
(0.0394895 0.0333077 0)
(0.0287669 0.0328729 0)
(0.0181809 0.0325664 0)
(0.00771336 0.0323748 0)
(0.0131281 -0.249851 0)
(0.0729088 -0.256283 0)
(0.132036 -0.253261 0)
(0.192208 -0.25995 0)
(0.254 -0.268936 0)
(0.317978 -0.280724 0)
(0.384762 -0.295667 0)
(0.455057 -0.314194 0)
(0.529674 -0.336874 0)
(0.609618 -0.364459 0)
(0.696131 -0.397955 0)
(0.790916 -0.439379 0)
(0.895349 -0.48658 0)
(1.01503 -0.5534 0)
(1.1484 -0.676022 0)
(1.27502 -0.606614 0)
(1.00962 -0.0389833 0)
(0.480745 0.572723 0)
(0.275681 0.786085 0)
(0.239692 0.834623 0)
(0.238345 0.902367 0)
(0.292147 1.04814 0)
(0.507524 1.29655 0)
(0.0128514 -0.302857 0)
(0.0697416 -0.314606 0)
(0.126046 -0.311851 0)
(0.183401 -0.319848 0)
(0.242129 -0.330603 0)
(0.302726 -0.344716 0)
(0.365711 -0.36259 0)
(0.431653 -0.384735 0)
(0.501191 -0.41184 0)
(0.575103 -0.444832 0)
(0.654303 -0.484908 0)
(0.739962 -0.53504 0)
(0.832801 -0.590375 0)
(0.929994 -0.689892 0)
(1.05081 -0.801102 0)
(0.994267 -0.4149 0)
(0.44869 0.473426 0)
(0.229622 0.77373 0)
(0.223833 0.800325 0)
(0.254072 0.815671 0)
(0.30641 0.851484 0)
(0.419458 0.908048 0)
(0.643415 0.938602 0)
(0.012456 -0.354083 0)
(0.0660035 -0.369503 0)
(0.119073 -0.367383 0)
(0.17314 -0.37646 0)
(0.228316 -0.388695 0)
(0.285013 -0.404741 0)
(0.343627 -0.425024 0)
(0.404571 -0.450095 0)
(0.468274 -0.480702 0)
(0.535229 -0.517851 0)
(0.605969 -0.562779 0)
(0.68065 -0.618755 0)
(0.761574 -0.680434 0)
(0.8261 -0.812291 0)
(0.926716 -0.793173 0)
(0.5869 0.0814345 0)
(0.192906 0.743876 0)
(0.188315 0.776866 0)
(0.220373 0.767627 0)
(0.262773 0.76802 0)
(0.32459 0.770683 0)
(0.419113 0.762333 0)
(0.553311 0.704855 0)
(0.0119439 -0.403035 0)
(0.0617759 -0.420723 0)
(0.111295 -0.419509 0)
(0.161686 -0.429427 0)
(0.212925 -0.442837 0)
(0.265325 -0.460397 0)
(0.319154 -0.482526 0)
(0.374664 -0.509778 0)
(0.432068 -0.542892 0)
(0.491566 -0.582844 0)
(0.553388 -0.630766 0)
(0.616377 -0.689484 0)
(0.683195 -0.757452 0)
(0.732022 -0.900503 0)
(0.74028 -0.623141 0)
(0.216465 0.552891 0)
(0.144872 0.769246 0)
(0.178244 0.74434 0)
(0.212818 0.729628 0)
(0.255576 0.717273 0)
(0.311038 0.699894 0)
(0.381982 0.666904 0)
(0.463645 0.60092 0)
(0.0113181 -0.44927 0)
(0.0571598 -0.468049 0)
(0.10289 -0.467898 0)
(0.149316 -0.478425 0)
(0.196341 -0.492704 0)
(0.244175 -0.511357 0)
(0.292967 -0.534774 0)
(0.34282 -0.56347 0)
(0.393755 -0.598119 0)
(0.445701 -0.63958 0)
(0.49874 -0.688761 0)
(0.550912 -0.747396 0)
(0.598004 -0.823735 0)
(0.649695 -0.942234 0)
(0.521173 -0.233582 0)
(0.100472 0.732415 0)
(0.131148 0.735176 0)
(0.163527 0.71123 0)
(0.196735 0.69224 0)
(0.235521 0.671431 0)
(0.281017 0.643707 0)
(0.33217 0.602588 0)
(0.382814 0.541159 0)
(0.010592 -0.492396 0)
(0.0522623 -0.511342 0)
(0.0940337 -0.5123 0)
(0.136301 -0.523219 0)
(0.178938 -0.538078 0)
(0.22206 -0.557429 0)
(0.265712 -0.581615 0)
(0.309876 -0.611087 0)
(0.35442 -0.646411 0)
(0.399058 -0.688277 0)
(0.443833 -0.737295 0)
(0.487265 -0.793615 0)
(0.511177 -0.88091 0)
(0.565187 -0.922085 0)
(0.229619 0.313283 0)
(0.0848031 0.741608 0)
(0.115492 0.703001 0)
(0.144044 0.680496 0)
(0.174741 0.658022 0)
(0.208359 0.632618 0)
(0.24491 0.600778 0)
(0.282354 0.559101 0)
(0.316034 0.504953 0)
(0.00978504 -0.532102 0)
(0.047185 -0.550524 0)
(0.0848925 -0.552551 0)
(0.122891 -0.563671 0)
(0.161058 -0.578849 0)
(0.199426 -0.598545 0)
(0.237958 -0.623052 0)
(0.276548 -0.652735 0)
(0.314962 -0.688041 0)
(0.352759 -0.729471 0)
(0.389972 -0.777337 0)
(0.427161 -0.829899 0)
(0.433149 -0.926814 0)
(0.470837 -0.799168 0)
(0.0247564 0.627179 0)
(0.0694331 0.70809 0)
(0.0964702 0.675866 0)
(0.122065 0.652246 0)
(0.14963 0.627743 0)
(0.178337 0.600341 0)
(0.207783 0.567628 0)
(0.236049 0.527958 0)
(0.260138 0.480642 0)
(0.00891459 -0.56816 0)
(0.042019 -0.585572 0)
(0.075614 -0.588564 0)
(0.109309 -0.599724 0)
(0.143001 -0.614992 0)
(0.176656 -0.634738 0)
(0.210178 -0.659194 0)
(0.243405 -0.688648 0)
(0.27605 -0.723425 0)
(0.30758 -0.763853 0)
(0.337916 -0.810001 0)
(0.370323 -0.858377 0)
(0.368882 -0.958578 0)
(0.366307 -0.607665 0)
(0.000359408 0.720751 0)
(0.0507044 0.676471 0)
(0.0754838 0.651249 0)
(0.0987789 0.626762 0)
(0.123053 0.60139 0)
(0.147593 0.573497 0)
(0.171692 0.541423 0)
(0.193957 0.504536 0)
(0.212373 0.46278 0)
(0.00800272 -0.600417 0)
(0.0368396 -0.616509 0)
(0.0663234 -0.620323 0)
(0.0957426 -0.631391 0)
(0.125013 -0.64656 0)
(0.154053 -0.666112 0)
(0.182729 -0.690234 0)
(0.210852 -0.719141 0)
(0.238125 -0.753053 0)
(0.26398 -0.792159 0)
(0.288095 -0.836335 0)
(0.315864 -0.880641 0)
(0.315269 -0.97752 0)
(0.209692 -0.233878 0)
(0.0264698 0.712555 0)
(0.0316347 0.654166 0)
(0.0532616 0.629005 0)
(0.0745807 0.603935 0)
(0.0960562 0.578456 0)
(0.117173 0.550865 0)
(0.137395 0.520067 0)
(0.155639 0.485908 0)
(0.170681 0.448575 0)
(0.00706581 -0.628797 0)
(0.0317137 -0.643387 0)
(0.0571357 -0.647863 0)
(0.0823472 -0.658734 0)
(0.107297 -0.673651 0)
(0.131862 -0.692821 0)
(0.155883 -0.716392 0)
(0.179164 -0.74453 0)
(0.201435 -0.777391 0)
(0.222151 -0.815069 0)
(0.240713 -0.857336 0)
(0.263219 -0.898431 0)
(0.267178 -0.983832 0)
(0.110385 0.200268 0)
(0.0100063 0.665264 0)
(0.0104504 0.633833 0)
(0.0303082 0.608215 0)
(0.0501088 0.58336 0)
(0.0691952 0.558347 0)
(0.087638 0.53147 0)
(0.104992 0.502116 0)
(0.120529 0.470336 0)
(0.133523 0.436458 0)
(0.0061264 -0.653273 0)
(0.0266915 -0.666296 0)
(0.0481334 -0.671268 0)
(0.0692551 -0.68186 0)
(0.0900175 -0.696397 0)
(0.110268 -0.715033 0)
(0.129834 -0.737888 0)
(0.148512 -0.765104 0)
(0.166069 -0.796817 0)
(0.182031 -0.833116 0)
(0.195532 -0.873814 0)
(0.211703 -0.913301 0)
(0.219396 -0.977586 0)
(-0.0185988 0.608565 0)
(-0.0332451 0.633863 0)
(-0.0127506 0.612662 0)
(0.00782389 0.588521 0)
(0.0261222 0.564797 0)
(0.0429595 0.540648 0)
(0.0591346 0.514619 0)
(0.0743069 0.486543 0)
(0.0880501 0.456728 0)
(0.0997982 0.425483 0)
(0.00519047 -0.673902 0)
(0.0218112 -0.685325 0)
(0.0393955 -0.69064 0)
(0.0565679 -0.700887 0)
(0.0733056 -0.714945 0)
(0.0894298 -0.732922 0)
(0.104738 -0.754923 0)
(0.11902 -0.781079 0)
(0.132044 -0.81156 0)
(0.143417 -0.846551 0)
(0.152058 -0.886105 0)
(0.160788 -0.925582 0)
(0.169413 -0.948812 0)
(-0.255687 0.715259 0)
(-0.0795382 0.610565 0)
(-0.0345552 0.58986 0)
(-0.0129052 0.569834 0)
(0.00309116 0.548375 0)
(0.0175018 0.525206 0)
(0.0315599 0.499837 0)
(0.0450184 0.472695 0)
(0.057568 0.444323 0)
(0.068729 0.415095 0)
(0.00426446 -0.690695 0)
(0.0171128 -0.700612 0)
(0.0309709 -0.706138 0)
(0.0443723 -0.715996 0)
(0.057268 -0.729494 0)
(0.0694722 -0.746707 0)
(0.080752 -0.76771 0)
(0.0908388 -0.792635 0)
(0.0994568 -0.82171 0)
(0.106206 -0.855331 0)
(0.10986 -0.894102 0)
(0.110058 -0.934757 0)
(0.122417 -0.839773 0)
(-0.132714 0.599939 0)
(-0.0678853 0.569888 0)
(-0.0435715 0.567967 0)
(-0.0299092 0.55462 0)
(-0.0186721 0.535149 0)
(-0.00754117 0.512235 0)
(0.00441386 0.486805 0)
(0.0166484 0.460056 0)
(0.0285462 0.432558 0)
(0.0396118 0.404749 0)
(0.00319854 -0.703853 0)
(0.0125612 -0.712444 0)
(0.0229309 -0.718048 0)
(0.032793 -0.727474 0)
(0.042096 -0.740354 0)
(0.0506831 -0.756731 0)
(0.0582968 -0.776624 0)
(0.0645953 -0.800106 0)
(0.0691394 -0.827406 0)
(0.0711902 -0.859128 0)
(0.0691024 -0.896699 0)
(0.0573339 -0.93935 0)
(0.0546856 -0.699677 0)
(-0.0233032 0.575406 0)
(-0.0411324 0.560941 0)
(-0.0460022 0.560422 0)
(-0.0452795 0.547426 0)
(-0.041009 0.526516 0)
(-0.0333059 0.501858 0)
(-0.0230724 0.475205 0)
(-0.0114724 0.448017 0)
(0.000470883 0.42086 0)
(0.0119348 0.394021 0)
(0.00208338 -0.713905 0)
(0.00832391 -0.720496 0)
(0.0156435 -0.726081 0)
(0.022323 -0.735052 0)
(0.0284661 -0.747347 0)
(0.0339866 -0.762961 0)
(0.0385942 -0.78179 0)
(0.0418141 -0.803774 0)
(0.0428531 -0.828871 0)
(0.0398343 -0.856965 0)
(0.0288463 -0.888447 0)
(0.000389766 -0.926195 0)
(-0.0860534 -0.418385 0)
(-0.0198017 0.5322 0)
(-0.0256273 0.56668 0)
(-0.0516335 0.568924 0)
(-0.0647217 0.549754 0)
(-0.0670201 0.522571 0)
(-0.0617748 0.493388 0)
(-0.0519375 0.464116 0)
(-0.0399001 0.435822 0)
(-0.0271373 0.408581 0)
(-0.014624 0.382478 0)
(0.0021752 -0.71295 0)
(0.00462553 -0.727589 0)
(0.00855581 -0.733081 0)
(0.0116189 -0.74136 0)
(0.014385 -0.752829 0)
(0.0162776 -0.76714 0)
(0.0171303 -0.783961 0)
(0.0163815 -0.802961 0)
(0.0130726 -0.82324 0)
(0.00615951 -0.843552 0)
(-0.00448321 -0.863514 0)
(-0.00164789 -0.898573 0)
(0.000699542 -0.38307 0)
(0.168655 0.533614 0)
(0.0043393 0.612305 0)
(-0.067385 0.598555 0)
(-0.0953563 0.560791 0)
(-0.100718 0.521295 0)
(-0.0947307 0.484954 0)
(-0.0831085 0.452054 0)
(-0.0690018 0.422311 0)
(-0.0543916 0.394974 0)
(-0.0402066 0.369585 0)
(0.000476622 -0.739727 0)
(0.00266944 -0.716205 0)
(-0.00352563 -0.721594 0)
(-0.00712001 -0.730433 0)
(-0.0122237 -0.742056 0)
(-0.0190751 -0.757328 0)
(-0.0250646 -0.776359 0)
(-0.0287216 -0.798774 0)
(-0.0172024 -0.828265 0)
(0.0353896 -0.863493 0)
(0.160691 -0.92479 0)
(0.199781 -0.942916 0)
(0.11075 -0.680237 0)
(0.323257 0.821642 0)
(-0.0320514 0.745663 0)
(-0.121154 0.648793 0)
(-0.147158 0.57401 0)
(-0.145848 0.517411 0)
(-0.133386 0.473058 0)
(-0.116598 0.436819 0)
(-0.0986812 0.40614 0)
(-0.0811043 0.379187 0)
(-0.0646906 0.354917 0)
(0.00418589 -0.723249 0)
(-0.00418018 -0.73127 0)
(-0.0104623 -0.733761 0)
(-0.0192779 -0.741941 0)
(-0.0276824 -0.75147 0)
(-0.0343233 -0.768573 0)
(-0.0375357 -0.793412 0)
(-0.0226715 -0.830002 0)
(0.0169778 -0.897386 0)
(0.0995147 -0.993311 0)
(0.240915 -1.07899 0)
(0.304898 -0.848976 0)
(0.0349256 -0.514482 0)
(-0.110344 1.05454 0)
(-0.239669 0.876344 0)
(-0.24101 0.68001 0)
(-0.225242 0.571268 0)
(-0.201544 0.501995 0)
(-0.176072 0.453167 0)
(-0.151248 0.416034 0)
(-0.127987 0.386044 0)
(-0.106729 0.360527 0)
(-0.0876705 0.338069 0)
(-0.00498858 -0.703373 0)
(-0.0169798 -0.71951 0)
(-0.0334205 -0.715619 0)
(-0.0527961 -0.720364 0)
(-0.0729335 -0.730948 0)
(-0.0942636 -0.75001 0)
(-0.115178 -0.779766 0)
(-0.137712 -0.830553 0)
(-0.163831 -0.91252 0)
(-0.198106 -1.04129 0)
(-0.22378 -1.18327 0)
(-0.284056 -0.828038 0)
(-0.574192 -0.0788401 0)
(-0.846444 1.12397 0)
(-0.517616 0.804734 0)
(-0.388891 0.632511 0)
(-0.312409 0.531276 0)
(-0.259432 0.466822 0)
(-0.218151 0.421961 0)
(-0.184064 0.388265 0)
(-0.155101 0.361344 0)
(-0.130002 0.338673 0)
(-0.108256 0.318898 0)
(-0.00605899 -0.670402 0)
(-0.0354229 -0.694654 0)
(-0.0652411 -0.691103 0)
(-0.0946199 -0.693525 0)
(-0.126636 -0.701823 0)
(-0.162955 -0.71696 0)
(-0.206257 -0.74124 0)
(-0.263957 -0.777541 0)
(-0.3509 -0.830131 0)
(-0.489567 -0.913944 0)
(-0.743047 -0.985403 0)
(-1.08344 -0.603343 0)
(-1.23019 0.223718 0)
(-1.04028 0.718764 0)
(-0.666899 0.57216 0)
(-0.48665 0.509858 0)
(-0.378917 0.454566 0)
(-0.30646 0.41219 0)
(-0.253404 0.37956 0)
(-0.212018 0.353671 0)
(-0.178201 0.332224 0)
(-0.149878 0.313766 0)
(-0.12582 0.297443 0)
(-0.0106971 -0.624686 0)
(-0.0518744 -0.658953 0)
(-0.0912705 -0.655799 0)
(-0.130511 -0.656682 0)
(-0.172782 -0.661643 0)
(-0.220433 -0.670305 0)
(-0.278519 -0.682396 0)
(-0.352644 -0.696143 0)
(-0.454195 -0.708937 0)
(-0.601163 -0.711797 0)
(-0.833658 -0.6483 0)
(-1.11878 -0.371513 0)
(-1.1323 0.0825881 0)
(-0.857722 0.282234 0)
(-0.663894 0.363644 0)
(-0.514716 0.37396 0)
(-0.410277 0.363776 0)
(-0.334577 0.347334 0)
(-0.277318 0.330291 0)
(-0.232345 0.314367 0)
(-0.195873 0.299842 0)
(-0.165528 0.286562 0)
(-0.139924 0.274222 0)
(-0.0108553 -0.577541 0)
(-0.0563978 -0.617757 0)
(-0.10015 -0.615218 0)
(-0.143874 -0.614031 0)
(-0.190849 -0.614088 0)
(-0.243898 -0.615151 0)
(-0.305508 -0.615019 0)
(-0.380174 -0.610279 0)
(-0.472596 -0.595445 0)
(-0.589168 -0.55819 0)
(-0.722906 -0.457772 0)
(-0.830039 -0.258 0)
(-0.818116 -0.0257438 0)
(-0.717849 0.125936 0)
(-0.605078 0.220446 0)
(-0.499517 0.262597 0)
(-0.413028 0.27936 0)
(-0.344007 0.28263 0)
(-0.288891 0.279475 0)
(-0.244225 0.273422 0)
(-0.207371 0.266054 0)
(-0.176441 0.258152 0)
(-0.150286 0.249983 0)
(-0.00982428 -0.534587 0)
(-0.0542611 -0.573491 0)
(-0.0976012 -0.570975 0)
(-0.142468 -0.567721 0)
(-0.189855 -0.563699 0)
(-0.241924 -0.557955 0)
(-0.300921 -0.548517 0)
(-0.36851 -0.531677 0)
(-0.445725 -0.501676 0)
(-0.532346 -0.449955 0)
(-0.618727 -0.360467 0)
(-0.6735 -0.22276 0)
(-0.665323 -0.0741371 0)
(-0.612969 0.0444521 0)
(-0.540424 0.127012 0)
(-0.465955 0.178735 0)
(-0.398028 0.208427 0)
(-0.339485 0.224198 0)
(-0.289939 0.231466 0)
(-0.248179 0.233539 0)
(-0.212842 0.232553 0)
(-0.182673 0.229709 0)
(-0.156906 0.225585 0)
(-0.00943501 -0.494249 0)
(-0.0513461 -0.530557 0)
(-0.0935196 -0.527401 0)
(-0.136706 -0.522223 0)
(-0.182194 -0.514977 0)
(-0.230906 -0.504497 0)
(-0.283938 -0.488805 0)
(-0.341726 -0.465022 0)
(-0.403713 -0.429447 0)
(-0.466292 -0.376383 0)
(-0.522135 -0.300603 0)
(-0.555909 -0.202682 0)
(-0.554563 -0.0978217 0)
(-0.524547 -0.006458 0)
(-0.478047 0.0650765 0)
(-0.425541 0.116568 0)
(-0.373659 0.15153 0)
(-0.325764 0.174288 0)
(-0.28305 0.188307 0)
(-0.245697 0.196555 0)
(-0.213056 0.200723 0)
(-0.18466 0.202278 0)
(-0.159986 0.201772 0)
(-0.00892804 -0.455988 0)
(-0.0487893 -0.489648 0)
(-0.0884872 -0.485556 0)
(-0.129345 -0.479048 0)
(-0.171696 -0.46955 0)
(-0.216051 -0.45613 0)
(-0.262655 -0.437122 0)
(-0.311129 -0.410708 0)
(-0.359903 -0.3742 0)
(-0.406151 -0.325137 0)
(-0.444351 -0.262333 0)
(-0.466966 -0.187653 0)
(-0.468815 -0.10952 0)
(-0.451665 -0.0374295 0)
(-0.421488 0.0233279 0)
(-0.384338 0.071052 0)
(-0.345059 0.106921 0)
(-0.306666 0.132747 0)
(-0.270911 0.151019 0)
(-0.238285 0.163386 0)
(-0.209058 0.171486 0)
(-0.182965 0.17655 0)
(-0.159962 0.17911 0)
(-0.00839025 -0.420232 0)
(-0.0453449 -0.450957 0)
(-0.0827098 -0.446434 0)
(-0.120518 -0.438954 0)
(-0.15918 -0.428135 0)
(-0.198903 -0.413083 0)
(-0.239256 -0.392899 0)
(-0.279673 -0.366171 0)
(-0.318786 -0.331606 0)
(-0.353972 -0.28805 0)
(-0.381811 -0.235511 0)
(-0.398528 -0.176344 0)
(-0.401631 -0.115042 0)
(-0.391634 -0.0568032 0)
(-0.371591 -0.00540035 0)
(-0.345068 0.037733 0)
(-0.315395 0.0722122 0)
(-0.284983 0.0991026 0)
(-0.255363 0.119368 0)
(-0.227503 0.134337 0)
(-0.201811 0.145235 0)
(-0.178332 0.152952 0)
(-0.157319 0.158052 0)
(-0.00771346 -0.387077 0)
(-0.042053 -0.415442 0)
(-0.0762983 -0.410395 0)
(-0.110907 -0.402289 0)
(-0.14582 -0.390826 0)
(-0.180809 -0.375427 0)
(-0.21569 -0.355336 0)
(-0.249557 -0.329813 0)
(-0.281196 -0.298017 0)
(-0.308907 -0.259728 0)
(-0.330419 -0.215501 0)
(-0.343633 -0.167011 0)
(-0.347241 -0.117221 0)
(-0.341524 -0.0692369 0)
(-0.327939 -0.0251839 0)
(-0.308857 0.0131499 0)
(-0.286357 0.0454845 0)
(-0.262289 0.0718337 0)
(-0.238058 0.0928559 0)
(-0.21452 0.109355 0)
(-0.192212 0.122032 0)
(-0.171439 0.131747 0)
(-0.15251 0.138808 0)
(-0.00700811 -0.356904 0)
(-0.0384998 -0.382342 0)
(-0.0697938 -0.377135 0)
(-0.101048 -0.369046 0)
(-0.132249 -0.357655 0)
(-0.163047 -0.342557 0)
(-0.192995 -0.323353 0)
(-0.221534 -0.299538 0)
(-0.247658 -0.270837 0)
(-0.270048 -0.237278 0)
(-0.287314 -0.199516 0)
(-0.298213 -0.158961 0)
(-0.302079 -0.11752 0)
(-0.298997 -0.0770019 0)
(-0.289798 -0.0392182 0)
(-0.275921 -0.00512108 0)
(-0.258758 0.0246297 0)
(-0.239753 0.0499152 0)
(-0.219955 0.0709289 0)
(-0.200192 0.0880221 0)
(-0.181069 0.101851 0)
(-0.162822 0.112872 0)
(-0.146012 0.121425 0)
(-0.00623187 -0.329106 0)
(-0.0349099 -0.352528 0)
(-0.0631403 -0.3474 0)
(-0.0912239 -0.339451 0)
(-0.118786 -0.328421 0)
(-0.145772 -0.314096 0)
(-0.171713 -0.296144 0)
(-0.196004 -0.274315 0)
(-0.217853 -0.24853 0)
(-0.236381 -0.219024 0)
(-0.250714 -0.186556 0)
(-0.260045 -0.152024 0)
(-0.263937 -0.116672 0)
(-0.262494 -0.0820466 0)
(-0.256305 -0.0492125 0)
(-0.246095 -0.018814 0)
(-0.232957 0.00846169 0)
(-0.217867 0.0323497 0)
(-0.201732 0.0527439 0)
(-0.185245 0.0699936 0)
(-0.168882 0.0843758 0)
(-0.153031 0.0962482 0)
(-0.13821 0.105902 0)
(-0.00560031 -0.304519 0)
(-0.0313151 -0.325594 0)
(-0.0565958 -0.320713 0)
(-0.0814025 -0.313095 0)
(-0.105857 -0.302646 0)
(-0.129473 -0.289187 0)
(-0.151932 -0.2726 0)
(-0.172739 -0.252749 0)
(-0.191294 -0.229677 0)
(-0.206985 -0.203801 0)
(-0.219148 -0.175531 0)
(-0.227253 -0.145642 0)
(-0.23106 -0.115168 0)
(-0.230707 -0.0850558 0)
(-0.226562 -0.0561675 0)
(-0.21909 -0.0290946 0)
(-0.208967 -0.00416448 0)
(-0.196983 0.0181361 0)
(-0.183833 0.0377715 0)
(-0.170041 0.0547696 0)
(-0.15614 0.0693324 0)
(-0.14245 0.0817507 0)
(-0.129435 0.0921257 0)
(-0.00495851 -0.282232 0)
(-0.0278775 -0.301645 0)
(-0.0502108 -0.29692 0)
(-0.0723117 -0.289703 0)
(-0.0937342 -0.279889 0)
(-0.114381 -0.26744 0)
(-0.133876 -0.25222 0)
(-0.151788 -0.234218 0)
(-0.167696 -0.213653 0)
(-0.181084 -0.190728 0)
(-0.191495 -0.165888 0)
(-0.19862 -0.139815 0)
(-0.202351 -0.113177 0)
(-0.202736 -0.0867179 0)
(-0.199997 -0.0611129 0)
(-0.194544 -0.0368455 0)
(-0.18676 -0.0141311 0)
(-0.177214 0.00668832 0)
(-0.166424 0.0253696 0)
(-0.154932 0.0419267 0)
(-0.143156 0.0564926 0)
(-0.131325 0.0691153 0)
(-0.120026 0.0799739 0)
(-0.00443322 -0.263007 0)
(-0.024618 -0.280333 0)
(-0.0443488 -0.275952 0)
(-0.0636528 -0.269239 0)
(-0.0824816 -0.260188 0)
(-0.100498 -0.248704 0)
(-0.117414 -0.234783 0)
(-0.132906 -0.218523 0)
(-0.146581 -0.200043 0)
(-0.158088 -0.179608 0)
(-0.167133 -0.157656 0)
(-0.173508 -0.134637 0)
(-0.177102 -0.11112 0)
(-0.177929 -0.0876346 0)
(-0.176182 -0.064658 0)
(-0.172182 -0.0427069 0)
(-0.166215 -0.0219923 0)
(-0.158525 -0.00261179 0)
(-0.149665 0.015104 0)
(-0.14008 0.0311697 0)
(-0.130085 0.0455075 0)
(-0.119949 0.0581819 0)
(-0.110186 0.0693535 0)
(-0.00381405 -0.245869 0)
(-0.0215002 -0.261736 0)
(-0.0387369 -0.257597 0)
(-0.0556638 -0.251294 0)
(-0.0720294 -0.242833 0)
(-0.0876574 -0.232233 0)
(-0.102297 -0.21952 0)
(-0.115663 -0.204773 0)
(-0.127476 -0.188164 0)
(-0.137465 -0.16994 0)
(-0.145387 -0.150384 0)
(-0.151075 -0.129901 0)
(-0.154452 -0.108905 0)
(-0.155565 -0.087806 0)
(-0.154569 -0.0670798 0)
(-0.151653 -0.0471026 0)
(-0.147039 -0.0281181 0)
(-0.140897 -0.0101693 0)
(-0.133606 0.00663325 0)
(-0.125575 0.0220984 0)
(-0.11714 0.0361428 0)
(-0.108494 0.0487986 0)
(-0.100081 0.0601079 0)
(-0.00335267 -0.231294 0)
(-0.0186792 -0.24543 0)
(-0.0336444 -0.241514 0)
(-0.048288 -0.235626 0)
(-0.0624569 -0.227775 0)
(-0.0759396 -0.217974 0)
(-0.0885328 -0.20631 0)
(-0.100029 -0.192916 0)
(-0.110193 -0.177926 0)
(-0.118794 -0.161499 0)
(-0.125663 -0.143909 0)
(-0.13069 -0.125482 0)
(-0.133846 -0.106551 0)
(-0.135163 -0.0875092 0)
(-0.13471 -0.0686941 0)
(-0.132612 -0.0503869 0)
(-0.129055 -0.0328719 0)
(-0.124233 -0.0162815 0)
(-0.118244 -0.00048075 0)
(-0.111504 0.0144513 0)
(-0.104391 0.0282203 0)
(-0.0970366 0.0407551 0)
(-0.0898709 0.0521059 0)
(-0.00280386 -0.21857 0)
(-0.0160361 -0.231345 0)
(-0.028939 -0.227727 0)
(-0.0415394 -0.222253 0)
(-0.0536691 -0.214949 0)
(-0.0651981 -0.205907 0)
(-0.0759573 -0.195218 0)
(-0.0857412 -0.182958 0)
(-0.0943721 -0.169242 0)
(-0.101708 -0.154271 0)
(-0.107633 -0.138294 0)
(-0.112069 -0.121565 0)
(-0.114978 -0.104371 0)
(-0.116356 -0.0869999 0)
(-0.116248 -0.0697247 0)
(-0.114766 -0.0528377 0)
(-0.112056 -0.0365892 0)
(-0.108274 -0.0211622 0)
(-0.10345 -0.00638727 0)
(-0.0978129 0.00805326 0)
(-0.0918398 0.0215575 0)
(-0.085677 0.0339701 0)
(-0.0796404 0.0452846 0)
(-0.00241629 -0.207848 0)
(-0.0136982 -0.219323 0)
(-0.0246047 -0.215858 0)
(-0.0352491 -0.210709 0)
(-0.0455115 -0.203932 0)
(-0.0552382 -0.195567 0)
(-0.0642732 -0.185672 0)
(-0.0724899 -0.174354 0)
(-0.0797652 -0.161762 0)
(-0.0859846 -0.148071 0)
(-0.0910473 -0.133459 0)
(-0.0948814 -0.118133 0)
(-0.0974457 -0.102321 0)
(-0.0987476 -0.086285 0)
(-0.0988458 -0.0703005 0)
(-0.097826 -0.0546183 0)
(-0.0957911 -0.0394451 0)
(-0.0928528 -0.0249581 0)
(-0.089088 -0.0111332 0)
(-0.084484 0.00271731 0)
(-0.0795359 0.0160257 0)
(-0.0744507 0.0283253 0)
(-0.0694133 0.0395422 0)
(-0.0019446 -0.198684 0)
(-0.0114487 -0.209103 0)
(-0.0205694 -0.205883 0)
(-0.029433 -0.20107 0)
(-0.0379425 -0.194714 0)
(-0.0459883 -0.186885 0)
(-0.0534695 -0.177678 0)
(-0.0602782 -0.167196 0)
(-0.0663099 -0.155562 0)
(-0.0714666 -0.142903 0)
(-0.0756661 -0.129372 0)
(-0.0788542 -0.115154 0)
(-0.0810143 -0.100462 0)
(-0.0821702 -0.0855434 0)
(-0.0823662 -0.0706278 0)
(-0.0816648 -0.0559249 0)
(-0.0801448 -0.0416222 0)
(-0.0779032 -0.027878 0)
(-0.0750516 -0.0148003 0)
(-0.0714851 -0.00171119 0)
(-0.0674679 0.0114877 0)
(-0.0633408 0.0236699 0)
(-0.0591994 0.0347682 0)
(-0.00159898 -0.191275 0)
(-0.00937037 -0.200795 0)
(-0.0167689 -0.197767 0)
(-0.023955 -0.193244 0)
(-0.0308434 -0.187278 0)
(-0.0373536 -0.179937 0)
(-0.0433976 -0.171301 0)
(-0.0488923 -0.161471 0)
(-0.0537524 -0.15056 0)
(-0.0579013 -0.138694 0)
(-0.0612803 -0.126022 0)
(-0.063855 -0.112712 0)
(-0.0656174 -0.0989512 0)
(-0.0665791 -0.0849386 0)
(-0.0667743 -0.0708652 0)
(-0.0662596 -0.0569228 0)
(-0.0651106 -0.0432871 0)
(-0.0634207 -0.0301077 0)
(-0.0613083 -0.0175305 0)
(-0.0587092 -0.00514237 0)
(-0.0555794 0.00784121 0)
(-0.0523275 0.0199294 0)
(-0.0490215 0.0309047 0)
(-0.00123515 -0.185502 0)
(-0.00729544 -0.194093 0)
(-0.013088 -0.191247 0)
(-0.0186878 -0.18696 0)
(-0.0240472 -0.181291 0)
(-0.0291018 -0.174315 0)
(-0.033791 -0.166122 0)
(-0.0380507 -0.156811 0)
(-0.0418181 -0.146492 0)
(-0.0450406 -0.135287 0)
(-0.0476765 -0.123331 0)
(-0.0496945 -0.110771 0)
(-0.0510762 -0.097759 0)
(-0.0518231 -0.084462 0)
(-0.0519667 -0.0710491 0)
(-0.0515626 -0.0576943 0)
(-0.0506887 -0.0445623 0)
(-0.0494344 -0.0317942 0)
(-0.047901 -0.0195251 0)
(-0.046104 -0.00761058 0)
(-0.0438258 0.00501756 0)
(-0.0413872 0.0170327 0)
(-0.0389015 0.0279291 0)
(-0.000801893 -0.181251 0)
(-0.00527726 -0.189062 0)