/*--------------------------------*- C++ -*----------------------------------*\
| =========                 |                                                 |
| \\      /  F ield         | OpenFOAM: The Open Source CFD Toolbox           |
|  \\    /   O peration     | Version:  v1912                                 |
|   \\  /    A nd           | Website:  www.openfoam.com                      |
|    \\/     M anipulation  |                                                 |
\*---------------------------------------------------------------------------*/
FoamFile
{
    version     2.0;
    format      ascii;
    class       volScalarField;
    location    "0.65";
    object      alpha.water;
}
// * * * * * * * * * * * * * * * * * * * * * * * * * * * * * * * * * * * * * //

dimensions      [0 0 0 0 0 0 0];


internalField   nonuniform List<scalar> 
9072
(
1
1
1
1
1
1
1
1
1
1
1
1
1
1
1
1
0.972334
0.920561
0.999922
0.998064
0.987577
0.999743
0.999477
1
1
1
1
1
1
1
1
1
1
1
1
1
1
1
1
0.999499
0.934563
0.99994
0.999565
0.996364
0.921064
0.999998
1
1
1
1
1
1
1
1
1
1
1
1
1
1
1
1
1
0.999999
1
0.999999
0.972766
0.842152
0.9992
1
1
1
1
1
1
1
1
1
1
1
1
1
1
1
1
1
1
1
1
0.918217
0.842152
0.999999
1
1
1
1
1
1
1
1
1
1
1
1
1
1
1
1
1
1
1
1
1
1
1
1
1
1
1
1
1
1
1
1
1
1
1
1
1
1
1
1
1
1
1
1
1
1
1
1
1
0.999997
0.999972
0.9994
1
1
1
1
1
1
1
1
1
1
1
1
1
1
1
1
1
0.989854
0.999999
0.999926
0.743493
0.846535
1
1
1
1
1
1
1
1
1
1
1
1
1
1
1
1
1
1
0.93415
0.934145
0.910787
0.844038
0.935106
0.960963
0.99044
0.997868
0.970811
0.992687
0.973573
0.836168
0.970123
0.970118
0.970011
0.949399
0.928238
0.926649
0.926449
0.876469
0.308131
0.0320745
0.000163949
0.000692945
0.297375
0.99734
0.997955
0.99495
0.996024
0.931212
0.938609
0.542251
0.893459
0.926464
0.917149
0.951677
0.972451
0.930914
0.875471
2.89725e-05
2.01571e-05
6.0882e-05
0.100631
0.995987
0.997951
0.997959
0.997959
0.997786
0.424032
0.00587861
0.000811421
0.00080437
0.000817276
0.00113477
0.00693248
0.570441
0.994588
0.056043
2.89263e-05
2.01316e-05
0.0009934
0.995264
0.997756
0.99795
0.997959
0.99796
0.966201
0.00501512
0.00212829
0.00508965
0.004251
0.000812195
0.000814074
0.0010334
0.0161693
0.994588
0.158692
0.000122001
0.000121433
0.885603
0.997037
0.997154
0.997026
0.997924
0.997959
0.756015
0.002055
0.0020046
0.00125335
0.00159544
0.00301717
0.000801776
0.000793353
0.00118464
0.994586
0.158718
0.000181882
0.536017
0.997733
0.997472
0.996035
0.192032
0.0476831
0.996725
0.647829
0.00200571
0.00200571
0.00311606
0.00124401
0.00177853
0.00297782
0.00262978
0.0010274
0.859002
0.00812969
0.0933846
0.998191
0.998505
0.997718
0.249933
0.00806758
0.00924934
0.964167
0.791562
0.00204421
0.00204493
0.00297594
0.00183602
0.029871
0.00264682
0.00293651
0.00113822
0.736815
0.95275
0.994909
0.999472
0.998888
0.517373
0.000777776
0.00554365
0.0091525
0.973295
0.986867
0.0035717
0.00216999
0.0553341
0.238133
0.0624362
0.000813263
0.00015932
0.00158285
0.747249
1.4204e-05
0.403989
0.152117
0.371019
0.385326
0.712624
0.864899
0.974664
1
1
1
1
1
1
1
1
1
1
1
1
1
1
1
1.45949e-06
0.000158152
1.38126e-05
5.06818e-11
3.67676e-12
2.01985e-11
3.16812e-09
2.28571e-07
0.025493
0.195818
0.544864
0.886829
1
1
1
1
1
1
1
1
1
1
1
1.17758e-06
0.000184813
8.98291e-08
8.56268e-11
5.41028e-12
9.90775e-13
1.78591e-09
3.02503e-05
9.18102e-06
1.19654e-06
7.42088e-09
3.40142e-07
0.0777355
0.340643
0.670642
0.893412
0.999786
0.999999
0.999998
0.999999
1
1
1
2.3087e-09
2.65662e-08
7.6851e-07
6.43442e-11
1.49787e-11
-1.63173e-22
3.76054e-13
5.27225e-10
2.03691e-05
3.37259e-06
8.00804e-07
6.75582e-06
4.24327e-07
4.26509e-07
5.05484e-08
5.07292e-08
0.00368749
0.0867109
0.241989
0.381134
0.682975
0.903158
0.999994
6.87897e-12
5.95781e-11
1.39261e-06
4.34854e-11
0
-2.63024e-13
1.25867e-13
1.54291e-12
1.18723e-10
3.7936e-09
8.61569e-09
6.96481e-07
4.8244e-07
5.95522e-06
1.24875e-05
8.21507e-06
5.00081e-08
5.05526e-08
6.44197e-08
3.2629e-08
-9.48336e-09
0.0691264
0.409154
3.56792e-13
1.10015e-12
4.57722e-11
4.8989e-10
1.85913e-14
-1.62771e-13
4.83646e-13
5.48799e-12
4.24142e-11
1.66204e-07
1.10154e-07
1.04e-06
1.20441e-06
2.41836e-08
1.51737e-07
3.36269e-09
3.99769e-08
1.11262e-06
1.11262e-06
3.2738e-08
3.37901e-08
1.09188e-07
1.98936e-07
0
2.90344e-14
1.03111e-12
1.43538e-13
-5.57542e-14
-6.9326e-14
5.94836e-13
4.53323e-12
2.70319e-10
2.90234e-09
4.37139e-09
1.66415e-09
4.2313e-10
2.39436e-08
1.5283e-08
1.17508e-10
6.04206e-12
6.11011e-09
1.2532e-07
5.23149e-08
1.63346e-05
0.00010846
4.51605e-07
-1.70393e-14
4.98864e-16
4.08019e-15
-5.53783e-16
-3.08087e-14
-2.60575e-14
1.48721e-13
1.06413e-12
7.06952e-12
1.09537e-09
4.83553e-09
6.68888e-10
2.73213e-10
7.06463e-09
8.66877e-09
1.4288e-10
7.5647e-12
2.47303e-11
1.5455e-09
4.05344e-07
0.00049571
0.000495817
0.000181763
-1.30847e-14
-1.36831e-17
-2.38651e-16
-4.02098e-15
-1.19844e-14
-9.2349e-15
4.67719e-15
3.61228e-13
1.14281e-11
1.33001e-10
6.23247e-11
1.64332e-12
1.11909e-11
5.85686e-11
3.62885e-11
2.48859e-12
8.45725e-12
3.09169e-11
3.03029e-10
2.73339e-09
9.28809e-08
0.000432417
0.000474717
-7.77564e-15
-1.40397e-17
-2.45717e-16
-1.53576e-15
-3.78972e-15
-2.83287e-15
2.20074e-16
2.66118e-13
1.44453e-12
2.86663e-13
2.1049e-13
6.0711e-13
5.98607e-13
2.53323e-13
2.38037e-13
4.26817e-12
8.38546e-11
3.01191e-10
7.34308e-10
4.15675e-09
4.95477e-06
0.000187788
1.12177e-05
-4.23007e-15
-3.81891e-18
-7.70161e-17
-4.46207e-16
-1.0142e-15
-7.52455e-16
3.664e-17
8.64018e-15
1.29031e-14
1.4279e-14
4.55767e-14
9.23581e-14
6.82464e-14
3.8435e-14
4.28732e-13
3.03401e-11
1.95561e-10
3.677e-10
5.19794e-09
2.4482e-07
0.000134622
2.66929e-05
2.26869e-06
-2.20791e-15
-7.50614e-19
-1.84617e-17
-1.08507e-16
-2.34879e-16
-1.77038e-16
-1.09444e-17
5.74418e-17
4.27933e-16
1.22676e-15
3.31826e-15
6.65009e-15
4.99435e-15
1.14551e-14
9.79152e-13
2.96851e-11
2.19306e-10
1.03452e-08
3.75132e-07
0.000196887
1.06229e-06
1.1246e-06
1.11298e-05
-1.11052e-15
-1.17446e-19
-3.72228e-18
-2.27233e-17
-4.77334e-17
-3.68505e-17
-6.02547e-18
1.29826e-18
2.26995e-17
5.07673e-17
2.17718e-16
4.28349e-16
5.26985e-16
3.3877e-14
4.7895e-12
6.86194e-11
2.97121e-09
1.8518e-07
0.000119396
0.000249333
8.8584e-05
4.80535e-07
8.11283e-06
-5.2119e-16
-1.54511e-20
-6.547e-19
-4.17442e-18
-8.59401e-18
-6.81162e-18
-1.50949e-18
3.03504e-20
6.18142e-19
1.65137e-18
1.0209e-17
2.33673e-17
4.59436e-16
1.11236e-13
1.02965e-11
1.04246e-10
2.05201e-09
8.91079e-08
2.77898e-05
7.63874e-05
4.27551e-07
1.56906e-08
3.84759e-08
-2.17123e-16
-1.83868e-21
-1.03099e-19
-6.80865e-19
-1.37945e-18
-1.1238e-18
-2.99536e-19
-1.35827e-21
1.47224e-20
5.05395e-20
3.1499e-19
3.59457e-18
5.75221e-16
8.30484e-14
5.64176e-12
1.262e-10
1.38363e-09
3.45436e-08
1.81105e-09
1.78294e-09
4.48919e-09
1.31582e-08
1.1906e-07
-7.84411e-17
-2.10154e-22
-1.47083e-20
-9.91445e-20
-1.9807e-19
-1.66075e-19
-5.08287e-20
-1.97342e-21
3.00529e-22
1.28126e-21
1.27454e-20
1.35673e-18
2.34178e-16
2.41808e-14
1.39975e-12
5.21083e-11
3.66455e-10
8.11449e-11
6.24501e-11
2.17908e-10
1.01018e-09
7.07812e-09
1.10272e-07
-2.48244e-17
-2.32097e-23
-1.89546e-21
-1.28932e-20
-2.54638e-20
-2.20218e-20
-7.56765e-21
-5.28262e-22
3.95945e-24
3.08468e-23
1.23373e-21
2.9309e-19
4.77293e-17
4.67926e-15
2.71074e-13
4.77164e-12
1.32616e-11
2.25659e-11
1.40786e-11
4.28435e-11
1.05182e-10
9.77988e-10
1.17503e-08
-6.98326e-18
-2.38285e-24
-2.18444e-22
-1.49388e-21
-2.92867e-21
-2.62029e-21
-9.98884e-22
-9.91505e-23
1.61309e-26
8.28532e-25
1.01918e-22
2.23588e-20
2.52594e-18
6.53612e-17
5.45565e-14
1.02908e-12
6.50721e-12
-9.42695e-10
-2.32919e-07
0.00865627
0.00568684
3.80245e-09
0.0028309
-1.76306e-18
-2.18643e-25
-2.2292e-23
-1.53773e-22
-3.00807e-22
-2.79365e-22
-1.17312e-22
-1.51294e-23
-2.40348e-26
3.42099e-26
1.53325e-23
1.03317e-20
6.00789e-18
9.9953e-15
3.6667e-12
5.78753e-10
9.90339e-08
1.03641e-05
0.0061355
0.00952707
0.00526627
0.00168172
0.00773195
-4.03005e-19
-1.7457e-26
-1.99942e-24
-1.40279e-23
-2.7529e-23
-2.66208e-23
-1.22557e-23
-1.95911e-24
-1.3674e-26
8.38042e-27
1.6288e-23
1.83542e-20
1.4073e-17
1.1546e-14
8.42449e-12
3.2388e-10
7.12629e-08
1.78593e-05
0.0031067
0.00933667
0.0049413
4.69844e-05
1.09926e-05
-8.41627e-20
-1.18832e-27
-1.56811e-25
-1.13216e-24
-2.23931e-24
-2.25987e-24
-1.13595e-24
-2.18524e-25
-3.2768e-27
1.05169e-27
2.07409e-24
2.10159e-21
1.56444e-18
7.84188e-16
4.95585e-13
9.08754e-11
9.36715e-10
1.44108e-07
1.80912e-05
3.34359e-05
1.0038e-05
1.82489e-05
0.000118327
-1.61951e-20
-6.7794e-29
-1.07244e-26
-8.07689e-26
-1.61527e-25
-1.70295e-25
-9.30568e-26
-2.10844e-26
-5.42839e-28
4.03759e-30
3.60071e-26
3.90191e-23
2.73575e-20
1.41978e-17
5.98634e-15
1.65493e-12
3.00547e-11
5.55291e-09
6.38579e-07
1.10188e-06
9.95352e-07
2.19183e-06
5.56121e-07
-2.89549e-21
-3.19819e-30
-6.39005e-28
-5.08963e-27
-1.03048e-26
-1.13457e-26
-6.70561e-27
-1.75804e-27
-6.91664e-29
-1.65418e-29
2.54844e-28
4.07979e-25
3.66672e-22
2.42045e-19
1.16219e-16
1.82417e-14
6.06114e-13
1.34592e-10
1.21221e-08
1.9285e-08
7.1185e-09
1.46536e-09
7.71022e-10
-4.84667e-22
-1.236e-31
-3.32107e-29
-2.83226e-28
-5.80141e-28
-6.65607e-28
-4.22715e-28
-1.26568e-28
-7.55666e-30
-4.29868e-30
-3.8159e-46
3.55547e-27
3.62294e-24
3.02919e-21
1.63571e-18
3.46796e-16
9.55932e-15
1.35125e-12
1.356e-10
3.14474e-10
3.21312e-10
3.5014e-10
2.63325e-10
-7.64378e-23
-3.93892e-33
-1.52093e-30
-1.39129e-29
-2.87512e-29
-3.42396e-29
-2.32216e-29
-7.84695e-30
-6.80671e-31
-6.16757e-31
-6.12185e-30
1.90247e-29
2.52579e-26
1.73764e-23
1.34336e-20
3.17102e-18
9.72183e-17
1.4275e-14
5.04284e-13
9.43001e-12
2.67276e-11
3.23137e-11
1.73442e-11
-1.14094e-23
-1.58187e-34
-6.16265e-32
-6.02412e-31
-1.25221e-30
-1.5413e-30
-1.10815e-30
-4.16598e-31
-4.96799e-32
-6.68539e-32
-9.24923e-31
-4.74814e-47
1.21292e-28
7.08259e-26
3.28669e-23
8.62557e-21
2.88204e-19
3.1103e-17
2.02089e-15
5.79955e-14
2.17719e-13
2.81362e-13
1.12431e-13
-1.61337e-24
-1.10115e-29
-2.37987e-33
-2.29558e-32
-4.7875e-32
-6.06296e-32
-4.58482e-32
-1.88922e-32
-2.96381e-33
-5.81875e-33
-8.62678e-32
-5.84776e-31
3.25069e-31
2.94212e-28
1.27411e-25
3.90527e-23
1.59912e-21
1.40726e-19
7.35509e-18
1.92017e-16
6.57176e-16
9.16128e-16
3.90499e-16
-2.16013e-25
-7.6827e-30
-3.01568e-34
-7.6903e-34
-1.6059e-33
-2.08286e-33
-1.64346e-33
-7.31704e-34
-1.46912e-34
-4.13375e-34
-6.13155e-33
-5.91067e-32
-1.15921e-50
8.17145e-31
6.53656e-28
1.85023e-25
6.37625e-24
4.12324e-22
1.79336e-20
7.49656e-19
2.65556e-18
3.15778e-18
1.16873e-18
-2.73522e-26
-2.1225e-30
-1.0423e-34
-2.26556e-35
-4.72739e-35
-6.25136e-35
-5.10701e-35
-2.42477e-35
-6.16609e-36
-2.4142e-35
-3.50048e-34
-3.67088e-33
-1.63758e-32
-2.65017e-34
2.08767e-30
4.64126e-28
1.76338e-26
9.89342e-25
2.94426e-23
1.76567e-21
6.56389e-21
6.95125e-21
2.24035e-21
-3.26392e-27
-3.74215e-31
-2.43283e-35
-5.90835e-37
-1.22271e-36
-1.64154e-36
-1.37839e-36
-6.9003e-37
-2.23358e-37
-1.16544e-36
-1.63326e-35
-1.71485e-34
-1.12806e-33
-4.6129e-34
2.16875e-33
7.60715e-31
3.26046e-29
1.51961e-27
3.5194e-26
2.89823e-24
1.0696e-23
1.07695e-23
2.90987e-24
-3.63769e-28
-6.20564e-32
-4.74275e-36
-1.45e-38
-2.78455e-38
-3.78104e-38
-3.24159e-38
-1.69538e-38
-7.09969e-39
-4.67608e-38
-6.28232e-37
-6.40135e-36
-4.66515e-35
-1.34688e-34
-3.25442e-37
1.53589e-33
5.74342e-32
1.71578e-30
4.62183e-29
3.66562e-27
1.06128e-26
9.98944e-27
2.09485e-27
-3.72732e-29
-1.27483e-32
-1.19399e-36
-6.00819e-40
-5.60379e-40
-7.66843e-40
-6.67195e-40
-3.62187e-40
-2.0028e-40
-1.56869e-39
-2.00612e-38
-1.95465e-37
-1.42401e-36
-6.18616e-36
-2.86889e-36
2.55948e-36
8.31185e-35
1.99537e-33
6.06888e-32
3.87182e-30
8.142e-30
5.98891e-30
5.04268e-31
-3.43623e-30
-2.81394e-33
-4.05613e-37
-1.37008e-40
-1.00737e-41
-1.37645e-41
-1.20866e-41
-6.78618e-42
-5.03887e-42
-4.42919e-41
-5.35607e-40
-4.9421e-39
-3.44656e-38
-1.68793e-37
-3.16674e-37
-1.63455e-40
9.49842e-38
1.73535e-36
2.46457e-35
2.03172e-33
5.5672e-34
-2.72051e-32
-1.50412e-31
-2.78235e-31
-5.09381e-34
-1.27037e-37
-5.02783e-41
-1.87535e-43
-2.20089e-43
-1.94011e-43
-1.12647e-43
-1.13074e-43
-1.0604e-42
-1.20493e-41
-1.04437e-40
-6.82731e-40
-3.33981e-39
-9.18488e-39
-4.0641e-39
2.58911e-41
-3.93096e-36
-9.61166e-35
-6.50884e-34
-3.65502e-33
-1.40677e-32
-3.16749e-31
-1.93519e-32
-6.76717e-35
-2.82021e-38
-1.35724e-41
-1.04448e-44
-3.16397e-45
-2.7808e-45
-1.67545e-45
-2.2599e-45
-2.1711e-44
-2.30445e-43
-1.8622e-42
-1.12686e-41
-5.19971e-41
-1.59872e-40
-2.31116e-40
-5.80332e-39
-9.34717e-37
-1.7744e-35
-8.92408e-35
-5.34425e-34
-3.22331e-33
-1.86468e-30
-1.1362e-33
-6.48244e-36
-4.05531e-39
-2.3371e-42
-1.53928e-45
-4.2169e-47
-3.59038e-47
-2.26086e-47
-4.02323e-47
-3.83978e-46
-3.78602e-45
-2.83228e-44
-1.57167e-43
-6.64086e-43
-2.01753e-42
-4.96049e-42
-4.13408e-40
-6.62299e-38
-1.00267e-36
-5.78302e-36
-1.01794e-34
-7.42516e-34
-5.04146e-30
-5.56867e-35
-4.53113e-37
-3.76842e-40
-2.52344e-43
-1.73752e-46
-6.19335e-49
-4.2145e-49
-2.80287e-49
-6.39603e-49
-5.92913e-48
-5.4031e-47
-3.71714e-46
-1.87648e-45
-7.13473e-45
-2.0127e-44
-8.62234e-44
-1.94241e-41
-3.22933e-39
-3.81973e-38
-5.53022e-37
-1.73405e-35
-2.24347e-34
-7.1727e-30
-2.26386e-36
-2.37117e-38
-2.35972e-41
-1.76844e-44
-1.27303e-47
-1.50507e-50
-4.54711e-51
-3.23287e-51
-9.13068e-51
-8.08771e-50
-6.7805e-49
-4.2639e-48
-1.9442e-47
-6.57392e-47
-1.67294e-46
-1.69564e-45
-7.17912e-43
-1.13828e-40
-1.16178e-39
-6.05392e-38
-2.05037e-36
-1.15965e-34
-5.85665e-30
-7.62537e-38
-9.57042e-40
-1.05252e-42
-8.48207e-46
-6.25944e-49
-5.26341e-52
-4.5709e-53
-3.50814e-53
-1.17923e-52
-9.86427e-52
-7.57844e-51
-4.33326e-50
-1.7736e-49
-5.28758e-49
-1.21263e-48
-3.72448e-47
-2.04351e-44
-2.90321e-42
-3.58088e-41
-4.72093e-39
-1.48825e-37
-4.95161e-35
-2.70909e-30
-2.13748e-39
-3.07397e-41
-3.52156e-44
-2.93106e-47
-2.16136e-50
-1.63369e-53
-4.35864e-55
-3.61549e-55
-1.39047e-54
-1.0894e-53
-7.64622e-53
-3.95851e-52
-1.44707e-51
-3.77967e-51
-8.13064e-51
-7.71354e-49
-4.43899e-46
-5.43089e-44
-1.12736e-42
-2.12328e-40
-5.87039e-39
-1.1581e-35
-6.40379e-31
-5.03928e-41
-8.09624e-43
-9.21893e-46
-7.61719e-49
-5.45707e-52
-3.84615e-55
-4.01675e-57
-3.56614e-57
-1.51202e-56
-1.10335e-55
-7.05951e-55
-3.29863e-54
-1.07276e-53
-2.44361e-53
-5.51258e-53
-1.37084e-50
-7.4519e-48
-7.67537e-46
-2.71674e-44
-4.85418e-42
-1.02667e-40
-1.10574e-36
-5.95425e-32
-1.01672e-42
-1.79773e-44
-1.9526e-47
-1.54307e-50
-1.04493e-53
-6.82644e-57
-3.60539e-59
-3.38695e-59
-1.53199e-58
-1.03753e-57
-6.04412e-57
-2.54374e-56
-7.33992e-56
-1.45432e-55
-4.19434e-55
-2.05034e-52
-9.95111e-50
-8.54344e-48
-4.30213e-46
-5.36934e-44
-5.49913e-43
-1.8179e-38
-9.26485e-34
1
1
1
1
1
1
1
1
1
1
0.999991
0.999831
0.99989
0.9999
0.9539
0.314626
0.167713
0.800365
0.126372
0.0045821
1.26126e-05
0.00124711
0.321266
0.321724
1.7568e-06
0.000228995
0.171882
0.323605
5.5401e-07
8.4557e-06
0.00055337
0.262634
1.38002e-06
5.81152e-06
0.000144614
0.013689
2.19539e-06
6.08009e-06
8.10824e-05
0.00154937
9.22183e-06
1.10114e-05
1.856e-05
0.000173094
7.057e-05
6.96488e-05
9.80813e-07
7.43043e-06
2.48592e-07
3.00844e-07
6.07101e-07
1.74149e-06
3.90047e-07
1.73316e-06
5.47565e-05
2.23141e-05
2.01198e-06
1.87855e-05
0.000108645
0.000285385
2.18683e-06
2.01689e-05
9.2816e-05
0.000371941
1.4652e-07
7.70884e-07
5.46282e-06
1.597e-05
6.5553e-06
0.00142628
0.00034946
0.000946988
0.00395165
0.0076223
0.00546668
0.000693525
1.51637e-06
1.41823e-06
1.47713e-06
1.26208e-06
0.000116025
1.02099e-05
1.99685e-07
1.74321e-08
3.05316e-08
4.99082e-09
1.84314e-09
7.26839e-10
4.33387e-09
2.1194e-09
7.52467e-10
3.69503e-10
1.53718e-10
9.86611e-11
5.80787e-11
3.52583e-11
4.04033e-12
1.71434e-12
7.05557e-13
3.51346e-13
1.77998e-14
7.1289e-15
2.23358e-15
6.58399e-16
6.309e-17
2.32739e-17
6.39737e-18
1.47014e-18
1.51481e-19
5.39047e-20
1.30009e-20
2.37109e-21
2.35928e-22
8.06488e-23
1.65594e-23
2.30224e-24
2.10086e-25
6.65987e-26
1.0568e-26
1.49496e-27
6.7157e-29
2.53354e-29
6.1348e-30
1.97309e-29
1.50767e-31
1.56273e-30
1.52597e-29
9.45598e-29
1.8808e-30
1.07738e-29
5.73003e-29
2.79056e-28
-1.08437e-30
-9.95599e-30
-3.51036e-28
-3.96875e-27
-1.19057e-28
-5.04607e-28
-7.85783e-27
0
-3.84274e-28
-1.88488e-27
-4.51524e-26
-7.43578e-31
-5.65582e-28
-4.56269e-27
-1.06889e-25
7.69767e-20
-4.84301e-28
-8.23689e-27
-5.92481e-26
5.09381e-18
-2.54221e-28
-9.38947e-27
2.231e-25
1.02337e-17
-8.03295e-29
-5.60027e-27
7.18861e-26
4.31627e-23
-1.28039e-29
-1.34294e-27
-8.60921e-27
1.78498e-18
-4.28554e-31
-5.49368e-29
-4.2594e-29
-1.85535e-26
1
0.999997
0.999658
0.7171
0.000709139
0.000174166
0.00125732
0.0659581
0.490143
0.976862
0.8931
0.782846
0.870791
0.089137
0.000228691
3.88922e-05
4.52437e-05
0.00214991
0.679313
0.999996
0.999499
0.37717
0.000451105
0.000146707
0.000146707
0.000254501
0.529284
0.857341
0.802908
0.925756
0.999177
0.199458
0.00202673
0.00244491
3.88922e-05
0.00282114
1.86545e-05
0.595508
0.995201
0.133879
0.000656396
0.000175498
0.000160089
0.000577601
0.298093
0.241498
0.667014
0.889786
0.999216
0.999194
0.020445
0.000883655
0.00326556
1.97926e-05
0.000247555
9.91537e-06
0.620452
0.0019391
0.0017529
0.00617918
0.00358874
0.000310413
0.0102676
0.298081
0.00323644
0.00282415
0.121403
0.998239
0.997767
2.96683e-05
6.56886e-05
0.00323687
0.00202543
2.37772e-06
6.51803e-05
0.900065
0.00177031
0.00203536
0.00895904
0.00726039
0.000563291
0.105117
0.281851
0.00275399
0.00275399
0.131619
0.951752
0.159898
1.26732e-05
2.40637e-05
0.000583766
0.000186915
2.16008e-06
2.39214e-06
0.981769
0.00223332
0.0022511
0.000287348
0.000298949
0.000517867
0.131299
0.281799
0.00277579
0.00300872
0.286018
0.839995
1.14504e-05
1.15268e-05
1.66527e-05
0.00365362
0.176478
5.74736e-05
2.39685e-06
0.684716
0.27537
0.00092877
0.000575949
0.000228459
0.000376568
0.0281564
0.167405
0.00290986
0.0685602
0.520213
0.0517369
1.14403e-05
1.14918e-05
1.4479e-05
0.00994729
0.709892
0.0550637
0.00247878
0.0100445
0.316648
0.00247618
0.00994072
0.000219157
0.000318146
0.0289377
0.180822
0.0168681
0.407261
0.514897
1.14426e-05
1.14426e-05
1.15825e-05
9.53554e-05
0.414762
0.709892
0.418332
0.000633938
0.000629078
0.250141
0.00754661
0.0531513
0.013988
0.087497
0.167684
0.0398451
0.260287
0.120674
0.203858
1.14509e-05
1.14509e-05
1.15157e-05
1.40927e-05
0.284168
0.624148
0.439718
0.000645482
0.000645482
0.133578
0.0431595
0.0143484
0.119809
0.104557
0.0369524
0.0948042
0.0995827
0.0935056
0.274856
0.144102
1.14919e-05
2.08247e-05
0.000295707
0.034647
0.454632
0.171124
0.0179817
0.000843752
0.0171324
0.134552
0.013003
0.0120276
0.0140445
0.0196014
0.308139
0.720279
0.512424
0.167537
0.00266841
6.94606e-05
0.00104636
0.441426
0.916093
0.560242
0.812894
0.535285
0.933687
8.76022e-05
0.036231
0.128128
0.0511731
0.0264654
0.100027
0.413253
0.667662
0.914051
0.963294
0.586472
0.583662
0.926544
0.978935
0.974882
0.885287
0.995153
0.995139
0.995118
1.00239e-05
0.000144977
0.00939711
0.026821
0.148887
0.20659
0.0360951
0.000212872
0.00326684
0.777479
0.98399
0.984553
0.975845
0.867346
0.952259
0.99319
0.993686
0.992265
0.982968
4.51732e-05
0.000175201
0.00190713
0.109628
0.194119
0.0104504
4.58722e-05
5.10313e-05
0.00010831
0.00109758
0.548344
0.982694
0.943183
0.866057
0.90055
0.507337
0.0896379
0.00718362
0.825181
0.000507447
0.0492373
0.070446
0.00240694
0.000427914
4.76659e-05
4.29689e-05
7.0878e-05
6.81747e-05
3.2768e-05
0.000123929
0.0482108
0.809808
0.473681
0.000271448
0.000271448
0.000277435
0.000473865
0.380329
0.00254862
0.0241693
0.000136876
3.9703e-05
0.000109195
0.000501279
0.0013008
0.00101027
0.00147995
2.69827e-05
1.11297e-05
9.14436e-06
2.53548e-05
0.000130437
0.00042548
0.000272121
0.000287581
0.000692341
0.384444
4.21605e-05
3.23643e-05
2.88332e-05
3.05116e-05
0.000239251
0.00223074
0.00183935
0.000505685
0.00017776
2.27537e-05
0.00167163
3.76109e-06
0.000204729
0.00135407
0.00136949
0.000334894
0.000669461
0.0320527
0.0582329
0.0027644
0.00231069
0.000905625
0.000908916
0.00130259
0.0033012
0.00480522
0.00480881
0.000317956
1.7e-05
0.00193077
1.19742e-06
1.1972e-06
2.0362e-06
4.3553e-05
0.00206404
0.040256
0.0425837
0.020206
0.00189234
0.000606411
0.000479989
0.000134749
1.08374e-05
0.000779576
0.00163331
0.00480861
0.000424461
1.09793e-05
0.00189563
5.63968e-06
1.33795e-06
0.00032806
0.00133047
0.000978658
0.0451916
0.000137593
0.00352088
1.0559e-06
7.78541e-07
3.4039e-06
8.16364e-06
2.23486e-06
0.00114349
0.00017032
0.00455946
0.000230202
1.09793e-05
0.00204249
0.000108125
1.49e-06
0.000305004
5.13263e-09
1.00226e-09
0.0279359
0.000123946
9.17428e-05
6.14183e-07
2.23326e-08
1.48757e-09
3.08162e-06
4.87751e-07
1.34811e-05
0.00125084
0.000763891
0.00158683
1.24841e-05
0.0020711
1.44492e-05
9.58956e-05
8.01535e-06
2.53369e-08
9.25835e-10
9.16727e-10
0.000613057
9.0373e-05
1.38883e-10
2.72777e-11
2.17656e-08
8.52737e-09
-2.93147e-23
0.0016557
0.0164615
0.0126581
0.00273202
0.000165507
0.00206991
0.000115282
0.000665058
1.67375e-06
1.19728e-07
1.17032e-09
9.33744e-10
0.000650051
0.000101545
1.57353e-10
2.25339e-11
6.41404e-09
2.56607e-09
-2.70844e-18
0.000143166
0.0163751
0.0162244
0.016368
0.000651101
0.000372132
0.000190186
0.000406349
3.15385e-05
9.08043e-08
4.87612e-09
2.73971e-09
0.000354528
2.19417e-06
1.94968e-11
6.33281e-12
2.52896e-12
8.02318e-11
1.97874e-06
1.60417e-07
6.48029e-07
6.84237e-06
0.016368
0.0163573
0.000242291
0.000185481
0.000757591
0.00041844
8.71126e-07
3.91565e-08
2.75505e-08
9.52122e-07
2.1527e-06
2.01026e-13
1.14535e-13
8.25157e-12
1.26354e-10
8.80155e-12
0.000556514
1.34892e-05
3.15748e-05
2.98772e-05
0.0160119
0.00717143
0.000293727
0.000452031
6.53086e-05
4.88265e-05
2.5651e-07
2.39362e-07
5.34184e-06
2.25125e-06
2.00394e-16
1.65665e-15
2.11115e-14
3.50081e-14
5.03004e-14
0.000529564
0.00112427
6.2888e-05
3.72674e-05
4.53001e-05
0.0104935
0.000425812
0.000440474
0.0014336
3.25516e-05
1.67117e-06
4.22378e-06
0.00011517
5.36417e-06
2.79868e-19
4.48891e-18
1.86051e-14
3.65393e-13
5.29739e-13
3.1204e-13
0.000748411
3.6845e-05
7.93424e-05
0.00239382
0.00314206
0.000529993
0.00140505
0.00143017
7.76797e-06
2.56079e-06
0.00753318
0.0166244
4.2284e-05
3.16504e-22
1.30511e-19
6.20994e-17
2.5422e-14
4.8258e-14
5.77284e-10
4.52465e-10
0.000317593
0.000503104
4.10503e-06
0.00325615
0.000430522
4.32968e-06
5.31441e-06
1.02386e-06
3.64805e-05
0.0173776
0.0168255
0.000183202
2.16052e-25
4.00712e-21
1.1411e-17
1.15921e-14
4.93759e-14
2.82081e-08
1.42908e-09
0.000501933
0.000141571
8.01468e-07
2.10325e-06
0.000225146
1.58714e-06
3.29637e-07
5.03242e-08
0.00113281
0.00626958
0.00168196
0.00137363
4.99885e-24
5.84588e-19
5.2949e-16
3.77022e-13
8.59348e-14
5.58815e-09
8.22389e-09
0.000487753
1.09835e-06
3.98152e-07
2.42737e-05
0.00185526
0.00228114
1.89628e-06
4.92551e-08
0.0015869
0.00175288
2.67153e-06
0.00093863
3.86193e-22
5.73331e-18
1.59478e-14
2.24845e-13
2.46799e-13
2.64591e-10
0.000373134
0.000188779
3.37033e-07
2.51144e-07
0.00219071
0.00228194
0.00228264
0.000555706
3.31701e-07
0.0115763
0.000386192
2.35956e-06
0.000459727
5.26852e-20
3.38319e-18
1.45583e-11
4.55664e-12
6.53441e-11
1.32985e-10
0.000417412
1.47585e-06
1.99028e-07
1.99264e-07
0.000101987
0.000314155
0.00228224
0.000292853
6.3504e-07
0.0138374
0.00123793
1.06652e-07
0.00363947
6.37983e-20
1.6906e-17
3.14796e-14
4.27026e-08
1.67362e-08
6.86747e-06
1.78492e-06
1.2862e-05
2.54493e-07
1.15848e-07
1.32245e-06
0.000174546
0.00191673
2.27326e-07
1.57847e-07
0.00102779
0.000162914
7.67803e-08
0.00334093
3.23927e-21
8.80886e-18
0
3.17404e-11
1.42736e-08
1.05431e-06
1.72569e-05
4.2654e-07
3.83724e-09
0.000362533
1.5694e-08
1.84198e-05
1.78316e-06
2.33256e-07
1.59729e-07
0.011872
0.000750195
8.18344e-08
0.000212179
1.24486e-20
2.45509e-20
-4.11635e-24
9.74853e-09
1.25265e-06
1.70123e-05
1.95187e-08
2.66938e-09
2.96362e-09
0.000418483
1.67119e-09
8.69436e-09
4.89663e-08
1.64324e-07
0.000284298
0.011872
5.09512e-07
3.92514e-09
0.00713987
3.96544e-18
2.02212e-16
-1.70234e-11
7.21087e-05
2.53799e-05
2.90723e-09
3.14514e-10
1.56629e-09
2.89204e-09
0.000418483
1.55851e-09
1.66624e-09
4.76361e-09
6.56607e-07
9.2372e-06
0.00184915
8.50282e-08
3.84963e-09
0.0138371
1.10225e-17
1.08123e-13
5.5286e-05
8.5749e-05
3.71629e-06
2.93202e-10
1.74873e-10
5.86992e-09
1.08818e-05
0.00036433
1.55615e-09
1.63186e-09
3.03529e-09
2.57244e-05
0.00564537
2.5817e-06
1.09383e-08
6.70811e-09
0.00478653
8.22368e-18
2.19441e-09
2.02878e-10
1.05666e-09
5.34269e-11
5.7003e-11
7.0545e-11
3.28096e-06
0.00030943
0.00013135
1.718e-09
2.29584e-08
2.94745e-06
0.00943362
0.00564054
5.74857e-08
7.58423e-11
8.8981e-08
0.00147007
2.54997e-18
5.44079e-09
1.14158e-08
2.23352e-08
2.44157e-10
1.02021e-11
2.77543e-08
3.08749e-06
0.000500536
6.74052e-09
6.67207e-09
3.86764e-07
0.00371187
0.00610568
6.42766e-09
3.79604e-13
3.63498e-10
1.07958e-08
6.21698e-08
7.66711e-11
2.36787e-13
7.68702e-09
1.98393e-10
3.26327e-14
3.70498e-11
2.71904e-07
0.000450087
0.000113416
1.22418e-07
4.10502e-07
0.00204273
0.00404674
1.49753e-10
1.84344e-09
1.73238e-13
4.73867e-12
0
0.000147255
7.73135e-14
6.7672e-13
1.3446e-15
6.90303e-14
2.70077e-14
2.85522e-11
2.09325e-06
0.000624806
5.58468e-06
3.68837e-05
0.00146686
0.000478589
-8.51433e-15
1.09596e-10
9.71209e-09
-3.89448e-21
-2.60095e-35
-2.57207e-16
0.000161768
-3.38149e-24
-1.90163e-23
-9.64928e-25
2.13741e-14
2.57207e-19
-3.98744e-13
6.84309e-10
0.000548471
1.37017e-05
0.000788738
-1.23304e-22
-1.25728e-23
-1.6048e-24
-3.86297e-31
-2.34016e-29
-1.5761e-23
-2.81776e-19
-1.66372e-17
-1.6421e-18
1
1
1
1
1
1
1
1
1
1
1
1
1
1
1
0.999991
0.920732
0.968407
0.999923
0.987544
0.99778
0.999745
0.999998
1
1
1
1
1
1
1
1
1
1
1
1
1
1
1
1
0.976738
0.959678
0.999951
0.996408
0.977233
0.952094
0.999998
1
1
1
1
1
1
1
1
1
1
1
1
1
1
1
1
1
1
1
0.999983
0.842124
0.842216
0.999998
1
1
1
1
1
1
1
1
1
1
1
1
1
1
1
1
1
1
1
0.999192
0.842124
0.995857
0.999998
1
1
1
1
1
1
1
1
1
1
1
1
1
1
1
1
1
1
1
1
0.997134
1
0.999999
1
1
1
1
1
1
1
1
1
1
1
1
1
1
1
1
1
1
1
1
1
1
0.999998
1
1
1
0.999976
0.998019
1
1
1
1
1
1
1
1
1
1
1
1
1
1
1
1
1
0.999998
1
0.999976
0.954283
0.679883
0.998926
1
1
1
1
1
1
1
1
1
1
1
1
1
1
1
1
1
0.999998
0.93415
0.934062
0.860169
0.876786
0.956766
0.965359
0.99786
0.983483
0.970811
0.992785
0.8352
0.970123
0.970123
0.970096
0.969754
0.928351
0.928498
0.924203
0.712862
0.797498
0.170622
8.26576e-05
0.000264068
0.00320671
0.833167
0.9979
0.997959
0.994294
0.965611
0.937877
0.643188
0.770912
0.921192
0.923189
0.922654
0.967948
0.974548
0.571017
0.01782
2.02512e-05
5.62856e-05
0.00023692
0.715442
0.997785
0.99796
0.997959
0.997955
0.951919
0.0386383
0.00157596
0.000809294
0.000805843
0.000873825
0.00230558
0.0600234
0.994525
0.994588
0.0296624
2.02506e-05
2.71577e-05
0.676082
0.997451
0.997864
0.997958
0.997959
0.99796
0.441592
0.0023837
0.00504042
0.00508965
0.000901317
0.000813269
0.000826396
0.00238173
0.495915
0.994588
0.0203759
5.4804e-05
0.16864
0.996237
0.99677
0.997448
0.892578
0.997956
0.997925
0.00292246
0.00201071
0.00198799
0.00123046
0.00304789
0.00244905
0.000793353
0.000791448
0.162886
0.994587
0.0119486
0.000720239
0.993701
0.997733
0.997212
0.780412
0.0143881
0.924591
0.992926
0.0169897
0.00200561
0.00207576
0.00145838
0.00129911
0.00283311
0.00295572
0.000863946
0.0376474
0.994583
0.00607377
0.831242
0.998757
0.998254
0.956204
0.00376183
0.0062659
0.0639056
0.988572
0.0195398
0.00200561
0.0043473
0.00194924
0.00394269
0.0163405
0.00238985
0.00200112
0.00504054
0.994549
0.465116
0.999806
0.999196
0.995388
0.00934551
0.00108747
0.00682766
0.176395
0.988985
0.370915
0.00229379
0.00370952
0.131163
0.205017
0.00198849
0.000257286
0.000716296
0.00139168
0.994345
0.436031
0.278998
0.247264
0.336197
0.577033
0.794408
0.928538
1
1
1
1
1
1
1
1
1
1
1
1
1
1
1
1
0.000167842
6.13716e-05
8.76257e-08
6.42575e-12
2.54299e-12
2.59699e-10
3.27456e-08
7.70876e-07
0.0916173
0.35066
0.740679
0.976925
1
1
1
1
1
1
1
1
1
1
1
0.00013937
7.54489e-06
1.1917e-10
1.65659e-10
1.25094e-12
5.3371e-11
2.10473e-06
4.04528e-05
1.35625e-06
4.4763e-09
4.44336e-08
0.0191175
0.18095
0.51
0.801353
0.969308
1
0.999997
0.999999
1
1
1
1
8.76974e-08
6.91063e-06
5.09223e-10
1.57838e-11
2.22341e-12
-2.4676e-15
1.62995e-11
1.80037e-06
3.50672e-05
4.44398e-09
6.73905e-06
4.24246e-06
4.2287e-07
2.695e-07
5.04913e-08
5.07314e-08
0.0484299
0.144857
0.322967
0.51879
0.801933
0.984302
0.999977
2.74293e-10
2.34214e-06
1.17263e-07
6.04841e-13
-6.48157e-14
-1.6167e-13
1.31617e-12
7.26661e-12
1.67035e-09
4.41551e-09
1.68357e-07
7.32288e-07
6.02233e-07
1.24835e-05
1.24772e-05
5.00446e-08
5.00654e-08
5.36932e-08
4.61356e-08
3.05838e-08
-5.46103e-07
0.304108
0.300135
1.45475e-12
3.61487e-12
2.24567e-11
1.71816e-11
-1.46879e-13
0
2.96211e-12
6.45184e-12
6.7025e-08
1.66366e-07
9.25893e-08
1.47061e-06
2.44229e-08
6.50085e-08
5.66181e-08
4.53767e-10
8.85629e-07
1.11262e-06
1.00411e-06
3.28722e-08
4.11006e-08
1.47936e-07
9.72792e-07
6.03886e-14
8.89067e-13
4.37717e-13
6.23564e-15
-8.68791e-14
2.04429e-14
2.41867e-12
1.53776e-11
1.50404e-09
4.54841e-09
4.22185e-09
1.12844e-10
5.7385e-09
3.16621e-08
2.10707e-09
4.12193e-11
7.11472e-12
1.35924e-07
5.8463e-08
8.78145e-08
0.000102369
3.32584e-07
5.18093e-07
7.58583e-17
1.04151e-14
1.39011e-16
-1.61052e-14
-3.78989e-14
6.49935e-15
5.6527e-13
1.86273e-12
9.47958e-11
3.54967e-09
3.18038e-09
5.90812e-11
2.63497e-09
9.83571e-09
3.48494e-09
6.39085e-12
1.80662e-11
1.09048e-10
2.57596e-08
0.000209684
0.000495837
0.000495817
5.19142e-07
-4.56987e-18
1.0599e-19
-1.43831e-15
-7.93409e-15
-1.34251e-14
-5.93359e-16
5.22795e-14
2.23912e-12
5.77279e-11
1.37446e-10
1.00127e-11
3.18143e-12
3.58307e-11
6.08163e-11
6.7564e-12
3.25162e-12
1.76247e-11
4.98835e-11
2.46556e-09
7.2375e-09
0.000119904
0.000492612
5.54074e-07
-4.30227e-18
-6.05726e-17
-7.04854e-16
-2.69465e-15
-4.02236e-15
-8.4106e-16
1.69085e-14
1.04956e-12
8.13859e-13
1.8233e-13
4.01762e-13
6.77417e-13
3.90485e-13
2.16423e-13
5.76564e-13
2.5767e-11
1.7058e-10
5.31687e-10
1.13721e-09
1.34399e-07
4.60852e-05
0.000262775
2.13261e-06
-1.19785e-18
-1.96399e-17
-2.12434e-16
-7.51865e-16
-1.04521e-15
-2.96517e-16
1.5473e-15
1.36247e-14
1.15329e-14
2.26992e-14
7.7581e-14
9.11196e-14
4.53552e-14
6.21706e-14
4.57274e-12
1.00912e-10
2.73944e-10
9.13211e-10
3.68018e-08
2.05644e-05
0.000140123
2.40478e-06
2.13261e-06
-4.24294e-19
-4.37392e-18
-5.2137e-17
-1.78619e-16
-2.38889e-16
-8.46545e-17