/*--------------------------------*- C++ -*----------------------------------*\
| =========                 |                                                 |
| \\      /  F ield         | OpenFOAM: The Open Source CFD Toolbox           |
|  \\    /   O peration     | Version:  v1912                                 |
|   \\  /    A nd           | Website:  www.openfoam.com                      |
|    \\/     M anipulation  |                                                 |
\*---------------------------------------------------------------------------*/
FoamFile
{
    version     2.0;
    format      ascii;
    class       surfaceScalarField;
    location    "0.65";
    object      alphaPhi0.water;
}
// * * * * * * * * * * * * * * * * * * * * * * * * * * * * * * * * * * * * * //

dimensions      [0 3 -1 0 0 0 0];
oriented        oriented;


internalField   nonuniform List<scalar> 
17936
(
-1.05075e-06
2.73938e-06
-1.68863e-06
2.28773e-06
-2.9241e-06
6.36372e-07
2.93962e-06
-2.72132e-06
-2.18305e-07
2.41186e-06
-1.88843e-06
-5.23436e-07
1.0173e-06
1.67796e-07
-1.1851e-06
-1.40888e-06
2.41944e-06
-1.01056e-06
-3.07351e-06
3.36499e-06
-2.91483e-07
-3.32589e-06
2.99962e-06
3.26268e-07
-2.48607e-06
1.88207e-06
6.04008e-07
-1.26252e-06
6.71927e-07
5.90597e-07
-1.25884e-07
-3.73201e-07
4.99085e-07
8.35276e-07
-1.2636e-06
4.28325e-07
1.66434e-06
-2.05257e-06
3.88234e-07
2.45032e-06
-2.89049e-06
4.40175e-07
3.42529e-06
-4.12785e-06
7.02559e-07
5.08502e-06
-6.27067e-06
1.18565e-06
7.32435e-06
-7.31218e-06
5.64902e-07
8.30055e-06
-1.0236e-05
1.86546e-06
1.19134e-05
-9.7658e-06
-2.14702e-06
5.52993e-06
-2.26262e-06
-3.23185e-06
2.87728e-06
-8.85689e-06
5.90761e-06
1.58527e-05
-1.71326e-05
1.2809e-06
1.24889e-05
-4.92073e-06
-7.57123e-06
-4.41151e-06
5.91677e-06
-1.50526e-06
2.55387e-06
-2.73033e-06
-8.6745e-07
1.04391e-06
2.60024e-06
-2.51021e-06
4.4245e-07
-5.32481e-07
2.50597e-06
-2.28983e-06
9.68659e-07
-1.1848e-06
1.58011e-06
-3.41886e-07
2.38566e-06
-3.62388e-06
-1.05436e-06
2.19619e-06
2.08462e-06
-3.22645e-06
-2.94989e-06
3.33147e-06
6.58386e-07
-1.03997e-06
-3.4161e-06
3.29212e-06
-4.09459e-07
5.33439e-07
-3.0278e-06
2.66541e-06
-9.8086e-07
1.34325e-06
-2.22964e-06
1.74342e-06
-1.13478e-06
1.621e-06
-1.23416e-06
7.29108e-07
-1.05334e-06
1.55839e-06
-2.51464e-07
-1.8357e-07
-8.99121e-07
1.33416e-06
5.77847e-07
-9.25913e-07
-7.67023e-07
1.11509e-06
1.23468e-06
-1.50638e-06
-7.87248e-07
1.05895e-06
1.74909e-06
-1.96606e-06
-1.22562e-06
1.44259e-06
2.18404e-06
-2.5682e-06
-2.4397e-06
2.82386e-06
3.52175e-06
-5.37283e-06
-2.92831e-06
4.80976e-06
7.22291e-06
-8.66335e-06
-3.17726e-06
4.88535e-06
1.02328e-05
-1.07564e-05
3.5998e-06
-3.07776e-06
1.08386e-05
-1.16851e-05
4.23112e-06
-3.36964e-06
1.45281e-05
-1.69272e-05
-1.16251e-05
1.40663e-05
1.55894e-05
-1.34021e-05
7.57508e-07
-2.60979e-06
1.07472e-05
-5.58458e-06
1.44593e-05
-1.9622e-05
-7.23257e-06
8.34803e-06
-1.11546e-06
2.06174e-06
-2.22546e-06
-1.19465e-06
1.35838e-06
2.45262e-06
-3.16708e-06
3.11101e-07
4.03364e-07
4.08758e-06
-4.56993e-06
1.05537e-06
-5.73016e-07
4.04265e-06
-2.38488e-06
5.02241e-06
-6.68018e-06
3.32193e-07
1.2493e-06
4.5207e-06
-6.10219e-06
-2.13258e-06
2.54363e-06
1.44341e-06
-1.85447e-06
-2.65129e-06
2.55582e-06
-6.51947e-07
7.47418e-07
-2.31877e-06
1.98633e-06
-1.70974e-06
2.04218e-06
-1.59497e-06
1.17373e-06
-2.0819e-06
2.50314e-06
-7.46092e-07
3.29991e-07
-2.01829e-06
2.43439e-06
6.25876e-08
-4.24533e-07
-1.73326e-06
2.0952e-06
7.51119e-07
-1.04716e-06
-1.43749e-06
1.73353e-06
1.31031e-06
-1.54674e-06
-1.31809e-06
1.55452e-06
1.75151e-06
-1.91673e-06
-1.61282e-06
1.77803e-06
2.00078e-06
-1.9212e-06
-2.75969e-06
2.68011e-06
1.59027e-06
-1.02874e-06
-5.15705e-06
4.59551e-06
4.80097e-07
-4.5434e-07
-6.10494e-06
6.07921e-06
1.25737e-06
-3.32138e-06
9.8587e-07
1.07813e-06
6.62453e-06
-9.03439e-06
1.52615e-06
8.83654e-07
9.17166e-06
-6.96372e-06
-1.40004e-05
1.2158e-05
5.35538e-06
-3.97157e-06
4.39234e-06
-5.7866e-06
3.01067e-06
-2.18586e-06
2.25491e-05
-2.35285e-05
-9.23995e-06
9.86462e-06
-6.24673e-07
1.54495e-06
-2.03296e-06
-1.64545e-06
2.13346e-06
3.01892e-06
-4.37408e-06
-1.60104e-06
2.9562e-06
5.56759e-06
-6.01219e-06
-6.97936e-08
5.14391e-07
5.41996e-06
-3.76911e-06
8.48902e-06
-1.01399e-05
1.54509e-06
3.77089e-07
7.98694e-06
-9.90912e-06
-1.38972e-06
1.72374e-06
2.24486e-06
-2.57888e-06
-1.76313e-06
1.67327e-06
-8.30201e-07
9.20066e-07
-1.49703e-06
1.25364e-06
-2.32928e-06
2.57268e-06
-9.63611e-07
6.47083e-07
-2.87305e-06
3.18958e-06
-3.21918e-07
2.06594e-09
-2.80296e-06
3.12281e-06
3.03629e-07
-5.90662e-07
-2.41944e-06
2.70647e-06
8.54003e-07
-1.09291e-06
-2.0002e-06
2.2391e-06
1.30665e-06
-1.49022e-06
-1.76329e-06
1.94686e-06
1.63967e-06
-1.74072e-06
-1.91107e-06
2.01212e-06
1.77499e-06
-1.71389e-06
-2.63655e-06
2.57545e-06
1.5112e-06
-1.06904e-06
-3.97182e-06
3.52966e-06
2.62812e-07
7.65745e-07
-5.10003e-06
4.07147e-06
-1.34776e-06
1.08814e-06
-2.20624e-06
2.46586e-06
-1.54046e-07
-1.17978e-06
-3.27251e-06
4.60633e-06
6.30033e-07
1.69858e-06
-1.04819e-05
8.59769e-06
-3.01758e-06
3.13731e-06
6.78204e-06
-6.91223e-06
-2.81709e-06
1.17397e-06
2.30561e-05
-2.1413e-05
-1.0155e-05
9.99356e-06
1.61431e-07
7.55485e-07
-1.27809e-06
-2.7469e-06
3.2695e-06
1.85263e-06
-2.17689e-06
-3.97712e-06
4.30137e-06
2.00403e-06
-1.28173e-06
-4.70832e-07
-2.51463e-07
8.80863e-08
6.79981e-07
1.13894e-05
-1.21574e-05
-8.33685e-07
9.80242e-07
1.12723e-05
-1.14188e-05
-1.22261e-06
1.24667e-06
2.80269e-06
-2.82674e-06
-1.11484e-06
9.58032e-07
-1.03759e-06
1.19439e-06
-8.00194e-07
6.24395e-07
-2.7781e-06
2.9539e-06
-4.2207e-07
1.98524e-07
-3.4561e-06
3.67965e-06
3.49761e-08
-2.68956e-07
-3.39632e-06
3.6303e-06
4.99722e-07
-7.2604e-07
-2.95924e-06
3.18556e-06
9.39595e-07
-1.13765e-06
-2.45512e-06
2.65318e-06
1.31409e-06
-1.46056e-06
-2.1101e-06
2.25657e-06
1.56685e-06
-1.62333e-06
-2.08806e-06
2.14454e-06
1.61493e-06
-1.51348e-06
-2.48903e-06
2.38759e-06
1.30364e-06
-9.73807e-07
-3.17815e-06
2.84832e-06
5.36896e-07
-6.17971e-08
-3.37068e-06
2.89558e-06
-3.47634e-07
6.0852e-07
-2.26657e-06
2.00569e-06
-1.00005e-06
2.08695e-06
-4.4156e-06
3.3287e-06
-3.65667e-06
5.56736e-06
-6.63807e-06
4.72739e-06
-6.76564e-06
6.4331e-06
7.70662e-06
-7.37409e-06
-4.88667e-06
2.48832e-06
1.92532e-05
-1.68549e-05
-9.21382e-06
7.78094e-06
1.43288e-06
-9.02456e-07
1.03314e-06
-3.50641e-06
3.37572e-06
-1.74346e-06
3.12047e-06
-3.82403e-06
2.44703e-06
-4.90761e-06
6.99466e-06
1.6811e-06
-3.76815e-06
-8.6319e-06
8.52367e-06
1.26028e-05
-1.24945e-05
-6.4231e-06
3.60489e-06
1.00212e-05
-7.20301e-06
-1.74287e-06
1.03253e-06
2.52723e-06
-1.8169e-06
-7.65847e-07
5.83318e-07
-1.38144e-06
1.56397e-06
-4.25955e-07
2.78318e-07
-3.11104e-06
3.25867e-06
-1.20734e-07
-5.2812e-08
-3.87094e-06
4.04448e-06
2.36203e-07
-4.23792e-07
-3.83565e-06
4.02323e-06
6.15278e-07
-8.10985e-07
-3.3879e-06
3.58361e-06
1.00221e-06
-1.18209e-06
-2.83885e-06
3.01873e-06
1.33854e-06
-1.46578e-06
-2.39063e-06
2.51787e-06
1.55081e-06
-1.58089e-06
-2.1868e-06
2.21688e-06
1.54545e-06
-1.42979e-06
-2.28247e-06
2.16681e-06
1.22879e-06
-9.34647e-07
-2.53372e-06
2.23958e-06
5.64499e-07
-1.62341e-07
-2.47309e-06
2.07093e-06
-1.93852e-07
4.8443e-07
-1.76082e-06
1.47025e-06
-8.50902e-07
1.65224e-06
-2.21473e-06
1.41339e-06
-3.20186e-06
5.046e-06
-2.70423e-06
8.60084e-07
-6.07195e-06
5.67888e-06
6.91994e-06
-6.52687e-06
-4.19273e-06
2.22719e-06
1.45139e-05
-1.25484e-05
-5.7587e-06
3.3386e-06
2.4201e-06
-3.50596e-06
4.67726e-06
-2.81557e-06
1.64427e-06
-6.50572e-06
9.30024e-06
-4.90896e-07
-2.30362e-06
-1.28167e-05
1.52541e-05
6.62729e-06
-9.06479e-06
-1.47469e-05
1.18204e-05
1.12367e-05
-8.30999e-06
-8.02575e-06
4.55987e-06
3.5013e-06
-2.12475e-08
-2.13066e-06
9.65416e-07
7.57453e-07
4.07792e-07
-5.60245e-07
4.28017e-07
-1.7059e-06
1.83812e-06
-3.47921e-07
2.48258e-07
-3.39081e-06
3.49047e-06
-1.07349e-07
-6.28223e-08
-4.21354e-06
4.38371e-06
2.43603e-07
-4.22394e-07
-4.20574e-06
4.38453e-06
6.128e-07
-8.11531e-07
-3.78003e-06
3.97876e-06
1.01788e-06
-1.20971e-06
-3.20183e-06
3.39366e-06
1.376e-06
-1.50901e-06
-2.64243e-06
2.77544e-06
1.59226e-06
-1.61383e-06
-2.23812e-06
2.25969e-06
1.56587e-06
-1.44227e-06
-2.04749e-06
1.92388e-06
1.24484e-06
-9.74865e-07
-1.96067e-06
1.69069e-06
6.47975e-07
-2.88346e-07
-1.6943e-06
1.33467e-06
-7.89035e-08
4.56466e-07
-1.12119e-06
7.43623e-07
-9.06541e-07
1.49794e-06
-7.86067e-07
1.94665e-07
-2.30383e-06
3.19348e-06
4.65847e-07
-1.3555e-06
-3.73338e-06
3.57421e-06
6.29257e-06
-6.1334e-06
-2.70449e-06
1.57063e-06
1.1051e-05
-9.91712e-06
-9.17072e-07
-2.1602e-06
3.35347e-06
-5.49972e-06
9.11976e-06
4.1543e-07
-4.03546e-06
-1.28281e-05
1.41198e-05
5.83584e-06
-7.12801e-06
-1.09544e-05
4.96712e-06
8.31243e-06
-1.95396e-06
-2.60937e-06
2.40503e-06
4.20108e-06
-3.494e-06
-2.34828e-06
2.76693e-06
-1.85651e-06
1.43786e-06
-2.84696e-06
2.34615e-06
-1.32746e-06
1.82827e-06
-1.66147e-06
1.11228e-06
-2.11403e-06
2.66321e-06
-7.63321e-07
4.82484e-07
-3.59904e-06
3.87987e-06
-1.99716e-07
-6.88838e-08
-4.56168e-06
4.83028e-06
3.04611e-07
-5.10342e-07
-4.56262e-06
4.76835e-06
7.01638e-07
-9.0719e-07
-4.17544e-06
4.38099e-06
1.10643e-06
-1.28106e-06
-3.58394e-06
3.75857e-06
1.43163e-06
-1.54726e-06
-2.91173e-06
3.02736e-06
1.6211e-06
-1.6422e-06
-2.28773e-06
2.30883e-06
1.60496e-06
-1.50352e-06
-1.81016e-06
1.70872e-06
1.32349e-06
-1.07716e-06
-1.42771e-06
1.18138e-06
7.76671e-07
-4.38388e-07
-9.85445e-07
6.47162e-07
7.9573e-08
3.05766e-07
-3.60183e-07
-2.51566e-08
-7.35975e-07
1.24502e-06
3.63671e-07
-8.72718e-07
-1.83892e-06
2.39812e-06
2.0306e-06
-2.5898e-06
-2.72561e-06
2.64337e-06
6.00998e-06
-5.92775e-06
-2.16663e-06
1.58554e-06
9.08581e-06
-8.50472e-06
-6.96374e-06
1.95629e-05
-1.25991e-05
1.75508e-05
-2.31125e-05
5.56195e-06
2.48377e-05
-2.37136e-05
1.29246e-07
2.15883e-05
-1.9918e-05
-8.98328e-07
2.03664e-05
-2.10761e-05
-8.9672e-08
2.16466e-05
-1.86281e-05
-2.8792e-06
4.64521e-06
8.44182e-06
-1.31411e-05
-1.39151e-05
1.12538e-05
2.65945e-06
-2.77266e-06
-5.50367e-06
8.2379e-06
-2.49891e-06
2.38604e-05
-2.12978e-05
-3.17944e-05
2.49075e-05
6.05314e-06
-2.97797e-06
-3.10116e-05
3.04903e-05
6.09239e-05
-7.51415e-05
1.42178e-05
7.64244e-05
-7.43088e-05
-2.11496e-06
7.2863e-05
-7.21639e-05
-6.88479e-07
7.17728e-05
-6.79113e-05
-8.94887e-07
6.53521e-05
-5.90658e-05
-6.46273e-06
4.61644e-05
-2.4454e-05
-2.20489e-05
1.13886e-06
7.7358e-06
-9.0431e-06
-3.13014e-05
3.55135e-05
-4.1486e-06
9.85681e-06
-5.56371e-06
-5.59543e-06
7.43795e-07
1.56569e-06
-6.86012e-08
9.83346e-09
4.31746e-08
1.81662e-08
-2.65423e-08
7.24958e-09
-2.50925e-10
7.1184e-08
-2.29276e-07
3.55666e-07
-2.13877e-07
8.32967e-07
9.95606e-06
7.58123e-06
-2.17427e-05
-2.4822e-05
2.84614e-05
2.22438e-05
-2.58832e-05
-2.83706e-05
2.56446e-05
-4.07732e-06
6.80304e-06
-2.18622e-05
1.80369e-05
-1.36169e-05
1.7466e-05
-1.84843e-05
6.54341e-06
3.23477e-05
-2.05278e-05
2.39242e-05
-5.83158e-05
-3.03294e-05
6.07966e-05
7.96172e-05
-7.14577e-05
-5.8869e-05
4.4823e-05
5.49017e-05
-6.34546e-05
-1.09199e-05
1.20016e-06
8.07785e-05
-8.54307e-05
2.76696e-06
-2.65982e-06
8.56306e-05
-8.51888e-05
1.13288e-07
-4.72188e-07
8.4e-05
-8.25688e-05
1.70028e-06
-2.15074e-06
8.11822e-05
-7.68298e-05
1.27902e-05
-1.74992e-05
6.76329e-05
-5.038e-05
4.21154e-05
-5.9582e-05
2.62553e-05
-1.5214e-06
2.56048e-05
-5.10022e-05
-3.4096e-05
3.28816e-05
1.23478e-06
7.46154e-08
-4.85619e-09
-7.63145e-08
5.74635e-09
2.59532e-09
-1.20605e-09
-2.6824e-09
7.07201e-10
3.94505e-10
3.07379e-08
2.35436e-10
-3.15385e-08
-9.13717e-07
1.12351e-05
6.59547e-07
-1.43525e-05
-3.43331e-05
3.74977e-05
4.58352e-05
-4.90263e-05
-3.69572e-05
3.68376e-05
2.59047e-05
-2.57856e-05
-3.52389e-05
3.02593e-05
-1.0748e-05
1.57276e-05
-2.22611e-05
1.25334e-05
-2.30675e-05
3.27952e-05
6.021e-06
-4.67109e-05
-1.15325e-05
5.22259e-05
6.26311e-05
-1.75659e-05
-6.50609e-05
2.44353e-05
4.54811e-06
-1.01792e-06
-4.50014e-06
7.57875e-07
2.06805e-07
-6.00615e-08
-1.32911e-07
-1.18792e-08
6.5532e-08
-7.51629e-08
6.61489e-09
2.80395e-09
9.11841e-08
-1.37035e-07
4.53615e-08
2.11343e-10
2.52084e-07
-6.62278e-07
4.18683e-07
-1.01659e-08
1.9565e-06
-5.92379e-06
4.82414e-06
-9.1949e-07
2.1629e-05
-5.32134e-05
7.04965e-05
-4.47682e-05
3.99885e-05
-1.94199e-05
7.55002e-05
-9.60688e-05
-6.76906e-06
-7.01307e-08
1.09115e-06
-1.36763e-08
1.3845e-09
-1.07156e-09
1.25641e-08
-4.11763e-10
2.54138e-09
9.74596e-11
-2.80803e-09
-1.6722e-07
5.27382e-06
6.06325e-07
-5.53385e-06
-3.28781e-05
3.97088e-05
4.06191e-05
-4.74549e-05
-4.16191e-05
4.19221e-05
4.87619e-05
-4.90698e-05
-4.23212e-05
4.28904e-05
2.60463e-05
-2.66158e-05
-4.14363e-05
3.47362e-05
-2.1668e-05
2.83681e-05
-2.2278e-05
4.67168e-06
-4.68936e-05
6.44999e-05
2.37562e-05
-4.85192e-05
-8.96761e-05
0.000115013
7.09297e-06
-9.50499e-07
-8.52911e-06
2.27525e-06
1.58405e-07
-1.33289e-07
-4.90395e-08
2.06423e-08
1.29142e-07
-1.05429e-07
-2.94299e-08
1.88592e-08
5.64285e-08
-1.71094e-08
-1.94601e-08
8.61868e-08
1.69977e-08
-2.5e-08
-5.17757e-09
1.31379e-08
3.30625e-08
-4.58536e-08
-3.7361e-09
1.59132e-08
6.87874e-08
-2.37711e-07
2.20846e-07
-5.27865e-08
1.26683e-06
-1.04619e-05
1.36533e-05
-4.86568e-06
3.94234e-05
-2.2132e-05
0.000115265
-0.000132556
-2.08983e-06
1.97528e-06
1.26338e-07
1.50956e-08
-1.46424e-09
-2.48421e-08
2.62994e-09
-2.39839e-08
1.01773e-06
7.72562e-08
-1.06758e-06
-1.65473e-05
3.67332e-05
2.53361e-05
-4.21153e-05
-3.96898e-05
4.12936e-05
4.9902e-05
-5.15266e-05
-4.21788e-05
4.3014e-05
4.96795e-05
-5.05299e-05
-4.4763e-05
4.56832e-05
2.74671e-05
-2.84091e-05
-4.00472e-05
3.67833e-05
-3.55169e-05
3.87776e-05
-2.34284e-05
3.16609e-06
-8.42353e-05
0.000104498
2.12375e-05
-9.27748e-06
-0.000112851
0.000107052
3.8453e-07
-9.96196e-08
-5.89974e-07
3.02577e-07
1.18606e-07
-1.45473e-07
-1.74675e-08
5.17912e-08
6.54204e-08
-5.85763e-08
-1.65895e-09
7.9109e-11
6.80632e-08
-8.82634e-08
1.92795e-09
-1.79096e-08
-1.71708e-08
8.58419e-08
-4.65875e-08
-5.25773e-09
-8.72439e-08
3.47608e-08
-2.68749e-08
7.75367e-08
-2.00161e-08
6.0918e-09
1.14395e-08
1.02219e-09
1.04184e-07
-1.4861e-06
2.17184e-06
-7.79786e-07
2.66851e-05
-1.89995e-05
0.000146019
-0.000153705
-1.93915e-06
1.90696e-06
3.9797e-08
-1.19474e-07
1.56225e-07
-7.58296e-10
-2.71518e-08
-3.04974e-06
2.80195e-05
5.36389e-06
-2.43613e-05
-3.61628e-05
3.85556e-05
4.70486e-05
-4.94602e-05
-3.9511e-05
4.00013e-05
5.24382e-05
-5.29499e-05
-4.06722e-05
3.98927e-05
5.15907e-05
-5.0813e-05
-2.05921e-05
1.09665e-06
1.76239e-05
-1.97455e-06
-9.5724e-07
5.77302e-06
-1.0062e-05
8.73732e-07
-1.84113e-05
4.99701e-06
-0.000122748
0.000136083
1.18113e-05
-5.24692e-06
-0.000118746
0.000134701
7.92157e-08
-8.09709e-08
-2.35091e-07
2.35741e-07
8.67771e-08
-7.02471e-08
-4.72691e-08
2.96341e-08
7.29811e-08
-5.82184e-08
-1.21954e-08
-1.16901e-11
2.22503e-08
-8.50648e-09
1.97816e-08
-3.48266e-08
-2.17773e-08
1.39155e-07
2.07334e-08
-1.13458e-07
-1.56913e-07
1.9047e-07
-1.93171e-07
1.59075e-07
-1.53338e-07
1.14744e-07
-1.95069e-08
7.10053e-08
-1.02426e-07
4.85222e-08
7.63392e-08
-2.09914e-08
8.47377e-06
-1.33914e-05
0.000157078
-0.000147036
-4.89466e-07
4.0787e-07
-4.19139e-08
-1.26278e-07
8.02809e-06
7.2002e-07
-5.7582e-06
-2.96014e-05
3.4895e-05
3.90328e-05
-4.43133e-05
-3.6556e-05
3.69968e-05
5.06557e-05
-5.11078e-05
-3.75434e-05
3.81726e-05
5.3546e-05
-5.41946e-05
-3.04521e-05
3.22718e-06
3.50957e-05
-6.25575e-06
-8.95678e-09
-2.08547e-07
6.62117e-08
2.54145e-07
1.0472e-07
8.37349e-08
-2.42839e-07
8.59639e-08
-5.83888e-07
5.33261e-06
-0.000139451
0.000135434
2.94318e-07
2.3879e-06
-0.000149051
0.000161094
-3.64339e-08
4.89105e-08
-3.229e-07
8.70633e-07
-1.69862e-08
2.45356e-08
-7.55079e-09
7.62283e-10
-6.96164e-08
1.31349e-07
1.93284e-09
-5.10448e-08
-3.23256e-07
7.09743e-07
7.73914e-08
-4.69086e-07
-1.59396e-06
2.44346e-06
3.4505e-07
-5.19948e-06
-2.81271e-07
-4.10185e-09
-1.08365e-07
1.9123e-07
-1.00215e-07
9.35261e-08
-6.43361e-08
5.82553e-08
-1.49486e-07
1.30722e-07
-1.01347e-08
3.03667e-08
9.66655e-07
-7.41481e-06
0.000133352
-0.000125178
-1.64582e-05
-1.81404e-08
1.65679e-05
-2.01121e-05
2.90934e-05
2.53549e-05
-3.41688e-05
-3.20534e-05
3.33238e-05
4.64991e-05
-4.77647e-05
-3.40485e-05
3.49063e-05
5.16113e-05
-5.2465e-05
-3.3164e-05
8.90888e-06
4.97481e-05
-1.97225e-05
-5.76563e-07
2.8095e-08
5.85148e-07
-4.37959e-08
3.31112e-08
-1.39984e-07
-3.68303e-07
5.88437e-07
-5.45919e-08
6.57777e-07
1.35654e-07
-3.12773e-07
8.30302e-06
-2.93309e-06
-0.000130727
0.000111381
-4.0027e-06
7.92572e-06
-0.000169753
0.000166594
-6.25764e-06
6.37948e-07
-1.83686e-06
9.3412e-06
-1.95019e-07
5.93058e-07
2.79713e-08
-4.20216e-07
-2.52495e-06
9.90012e-06
7.85309e-07
-1.39858e-05
-2.19391e-05
2.27287e-05
2.90482e-06
-2.08066e-05
-1.11869e-05
6.91175e-07
6.55939e-06
-2.5024e-06
-7.97506e-09
2.8904e-08
-1.5322e-07
3.52741e-08
-1.65941e-08
1.8766e-08
-2.58328e-08
1.16234e-08
-6.5431e-08
9.83111e-08
-4.1006e-08
9.05742e-08
-7.58443e-08
-2.52836e-06
0.000120522
-0.000116655
1.67382e-07
-3.02085e-09
-1.65302e-07
-1.43781e-06
-1.94822e-06
5.54776e-06
-2.50155e-08
3.55576e-06
-5.58373e-06
1.30051e-06
-4.12842e-07
1.0276e-05
-9.91511e-06
4.83192e-07
-6.2602e-09
8.74778e-06
-8.81372e-06
4.51583e-06
-2.54721e-07
6.68632e-06
-3.32312e-06
-1.48781e-07
-1.91993e-06
5.0416e-07
1.91727e-06
-1.91805e-06
-4.22713e-07
-3.88034e-06
5.29342e-06
-3.19946e-06
1.31387e-06
-6.23518e-06
6.21886e-06
-4.42823e-06
4.44456e-06
-5.28264e-06
4.00096e-06
-5.39194e-06
6.67362e-06
-2.7013e-06
1.58927e-06
-5.13729e-06
6.24932e-06
-3.79047e-07
-9.52282e-07
-4.67592e-06
6.00725e-06
2.21211e-06
-3.20377e-06
-3.93639e-06
4.92806e-06
3.93925e-06
-4.36957e-06
-3.09794e-06
3.52826e-06
4.47058e-06
-4.27292e-06
-2.28096e-06
2.0833e-06
3.91611e-06
-3.47193e-06
-1.59957e-06
1.1554e-06
2.93319e-06
-2.37426e-06
-9.57622e-07
3.98695e-07
1.82142e-06
-1.23276e-06
-3.31523e-07
-2.57134e-07
5.77708e-07
1.26419e-07
4.02503e-07
-1.10663e-06
-8.78328e-07
1.68855e-06
1.33185e-06
-2.14207e-06
-2.53938e-06
3.33185e-06
3.06006e-06
-3.85253e-06
-3.96628e-06
4.40862e-06
5.95451e-06
-6.39685e-06
-4.8749e-06
5.79518e-06
7.87849e-06
-8.79877e-06
1.24019e-12
1.00294e-10
3.53718e-12
5.19e-09
-1.27009e-08
2.7532e-08
-3.79879e-10
1.99718e-08
-5.02449e-09
-1.49163e-08
1.24191e-09
8.05141e-11
-6.82429e-15
-8.16334e-11
1.12447e-12
5.55086e-14
-5.1563e-13
4.6019e-13
-1.00094e-16
4.63801e-12
-4.08391e-11
3.62191e-11
-1.86235e-14
3.34918e-10
-2.66288e-09
2.33086e-09
-2.982e-12
2.07686e-08
-1.39193e-07
1.18694e-07
-2.71812e-10
4.58296e-07
-1.75114e-06
-8.80721e-08
-2.66634e-09
2.79672e-06
-3.68975e-06
-2.36843e-06
-1.29489e-07
4.36009e-06
-4.34704e-06
-5.47675e-06
1.10997e-07
3.25575e-06
-2.17546e-06
-7.05777e-06
2.89571e-06
1.40713e-06
-1.00392e-06
-6.38098e-06
5.97777e-06
1.21699e-06
-1.95495e-06
-4.51968e-06
5.25763e-06
3.0061e-06
-3.98492e-06
-2.48841e-06
3.46722e-06
4.79595e-06
-5.15382e-06
-9.95825e-07
1.3537e-06
4.98533e-06
-4.62796e-06
4.33548e-07
-7.9092e-07
4.12547e-06
-3.3331e-06
1.0878e-06
-1.88016e-06
2.25457e-06
-1.18167e-06
1.84007e-06
-2.91297e-06
3.26456e-07
3.33575e-07
2.7215e-06
-3.38153e-06
-8.82648e-07
1.29783e-06
4.38216e-06
-4.79735e-06
-1.57044e-06
1.86839e-06
6.81316e-06
-7.11112e-06
-2.52916e-06
3.90321e-06
9.73784e-06
-1.11119e-05
-4.85432e-11
4.02365e-11
9.04547e-12
9.18008e-10
-8.13274e-10
-8.69612e-09
-5.42576e-10
7.80641e-11
-4.85415e-12
-6.71825e-11
9.37825e-12
2.09805e-15
-3.11812e-15
-1.1355e-14
8.03603e-15
1.52361e-16
-4.50118e-17
1.60709e-16
-1.83874e-16
1.14934e-16
-2.51166e-15
2.3433e-15
-4.8787e-17
5.5257e-14
-9.49662e-13
8.43382e-13
-4.37791e-14
1.55836e-10
-8.04931e-10
2.32804e-10
-8.69858e-12
1.00123e-09
-1.13609e-10
1.25122e-10
-7.79161e-11
7.4235e-11
-7.44586e-11
2.13804e-11
-3.25788e-12
1.45489e-09
-1.49881e-08
1.35365e-08
-3.4772e-12
1.23883e-07
-5.01286e-07
3.77685e-07
-2.96597e-10
1.53802e-06
-3.10383e-06
-4.42677e-07
-2.17815e-08
5.07938e-06
-6.60037e-06
-2.18632e-06
-4.54196e-07
7.27853e-06
-6.93804e-06
-3.14949e-06
-3.01803e-07
5.86706e-06
-4.4725e-06
-2.20971e-06
-1.13373e-07
3.04546e-06
-2.64386e-06
4.00364e-07
-7.84353e-07
3.29484e-06
-3.89945e-06
2.13357e-06
-1.52891e-06
3.89183e-06
-3.7891e-06
3.81898e-06
-3.92166e-06
3.51636e-06
-3.0319e-06
4.09801e-06
-4.58244e-06
2.53357e-06
-2.42527e-06
5.3514e-06
-5.4597e-06
2.88011e-06
-3.59385e-06
7.1836e-06
-6.46986e-06
4.02999e-06
-3.66825e-06
1.20231e-05
-1.23848e-05
-7.14439e-13
8.29532e-15
7.1354e-14
-8.89181e-12
1.65211e-12
-2.4725e-12
6.86329e-12
-1.18253e-11
-3.06183e-13
-7.60837e-12
4.89526e-11
1.03918e-13
4.09461e-16
-1.09765e-13
6.51499e-15
-2.38655e-16
5.69076e-17
3.15117e-16
-1.62795e-17
2.25656e-20
-2.92236e-18
1.35162e-18
1.54818e-18
3.54379e-17
-2.322e-15
2.24218e-15
-5.49832e-18
1.06739e-14
-2.48433e-13
2.37827e-13
-5.59648e-14
1.23162e-10
-6.84952e-10
-6.82606e-11
-8.27799e-12
5.72828e-10
-1.48934e-11
-1.73151e-12
1.02547e-11
1.51831e-11
-1.7848e-10
5.10922e-13
-1.84872e-14
1.93489e-10
-1.72782e-10
9.23943e-12
3.24844e-11
1.98258e-11
-2.37459e-11
3.41439e-12
-6.08429e-13
3.31352e-11
-6.23115e-11
4.62495e-11
-1.82668e-11
3.2955e-10
-2.36827e-09
2.03931e-09
-3.90582e-13
1.57614e-08
-9.46956e-08
7.8935e-08
-9.46251e-13
5.04938e-07
-1.77223e-06
1.47679e-06
-7.63975e-12
2.89229e-06
-3.93658e-06
1.76263e-06
-2.75984e-10
5.67705e-06
-6.68576e-06
3.52854e-06
-1.0707e-08
6.81125e-06
-7.18364e-06
4.34069e-06
-3.53066e-07
6.88487e-06
-6.36597e-06
4.41998e-06
-2.54963e-06
8.10718e-06
-1.16802e-05
4.13649e-06
-1.46132e-06
1.55444e-05
-2.00223e-05
1.06516e-05
-6.17362e-06
-6.50789e-16
1.867e-16
7.06333e-17
-1.18473e-13
1.05379e-12
-9.57579e-13
2.06721e-14
-2.84382e-11
3.50302e-12
-5.38138e-11
1.51191e-12
3.96487e-17
4.96738e-16
-2.58715e-14
2.37025e-14
-5.42712e-18
2.15378e-18
1.41265e-18
1.8607e-18
-9.25603e-19
1.23784e-18
-3.80365e-19
-7.07898e-19
1.66436e-18
-9.13538e-18
-7.5257e-20
5.99956e-19
2.8084e-17
-5.59338e-16
5.486e-16
1.41549e-17
1.80439e-14
-1.56759e-13
1.34905e-13
-6.75887e-16
1.94262e-13
-8.39832e-14
-1.30604e-13
-2.24584e-13
3.52899e-13
6.88937e-13
-2.83403e-15
1.0284e-13
8.82235e-12
-1.64824e-11
-2.00577e-15
3.56387e-12
1.46698e-11
-2.67478e-11
-2.85503e-12
1.54298e-12
2.3369e-11
-3.13431e-10
-8.46585e-11
3.12194e-12
2.91078e-10
-2.89029e-10
-2.08644e-13
2.41224e-11
3.098e-10
-1.40944e-12
4.41821e-13
2.45139e-11
1.84623e-12
-2.2845e-12
6.51631e-13
-2.45884e-13
2.76804e-12
-3.50307e-12
2.09254e-12
-1.42232e-12
7.83087e-12
-4.93229e-11
4.59768e-11
-5.24468e-12
4.57722e-10
-4.61163e-09
4.15459e-09
-6.45113e-13
4.17537e-08
-3.52698e-07
3.10948e-07
-1.87903e-12
1.22328e-06
-1.02708e-05
1.81955e-06
-9.93476e-11
1.85463e-05
-1.89437e-05
5.79234e-06
-1.60432e-08
-3.31253e-17
2.19254e-18
-4.03495e-20
-3.77169e-17
4.86575e-16
-1.59745e-16
1.60827e-17
-2.55644e-14
9.63288e-15
1.24648e-14
4.46797e-17
-2.48414e-15
1.42981e-15
-4.69621e-14
9.64145e-16
-8.36908e-19
2.16766e-19
-9.9974e-19
8.64748e-19
-7.49584e-19
-8.93208e-21
1.33045e-18
-1.475e-18
4.63413e-18
-1.9579e-17
-2.69488e-18
4.79603e-18
5.63414e-17
-1.02608e-16
-3.2319e-17
5.33595e-17
4.6104e-16
-1.72857e-14
-9.01611e-16
1.58865e-14
3.39776e-12
-3.33216e-12
-6.32245e-13
1.52004e-12
2.70087e-12
-4.42838e-13
-6.61426e-13
6.02681e-13
7.44194e-12
-3.72919e-11
-8.75577e-12
1.88473e-12
3.36775e-11
-8.19655e-13
-4.88227e-12
3.76296e-12
1.01505e-12
-1.45776e-12
-2.33379e-13
6.68329e-14
4.04772e-12
-3.01707e-12
4.2184e-13
1.28494e-14
2.86664e-13
-7.36922e-14
3.53929e-13
3.02059e-15
2.28352e-13
-6.81466e-12
2.49335e-13
-5.77257e-14
3.3543e-11
-3.37945e-11
8.35677e-12
-7.78547e-12
3.35071e-11
-3.17071e-11
9.92777e-12
-1.1408e-11
1.72047e-12
-1.42964e-12
4.68801e-13
-6.99689e-13
1.48859e-12
-2.91233e-12
1.33815e-12
-2.0669e-13
2.95372e-12
-2.65912e-12
2.85408e-12
-9.85125e-12
1.96707e-11
-8.99642e-11
5.7554e-11
-6.45474e-13
-5.0462e-19
3.89968e-20
-4.69325e-21
1.0356e-21
2.87242e-20
-2.85131e-18
1.44621e-19
-4.92089e-18
1.79985e-18
-6.30426e-17
8.71811e-18
-2.10109e-19
-8.15364e-20
-1.61881e-17
7.1944e-19
-1.38378e-19
3.90821e-19
6.09426e-19
-8.92868e-19
-4.63583e-19
-2.60036e-19
1.27002e-18
-9.58796e-19
1.80636e-18
-1.84985e-17
-7.18755e-18
6.88744e-18
4.1787e-17
-9.31091e-17
-5.83557e-17
4.80685e-17
1.03353e-15
-1.7325e-14
-3.3919e-15
2.18564e-15
5.75605e-14
-1.18036e-13
-2.41485e-13
-9.56288e-15
1.13517e-13
-1.20207e-13
-6.57681e-15
2.99142e-14
8.89697e-14
-5.07315e-14
9.05873e-14
2.15057e-15
6.77192e-14
-9.65576e-14
8.04836e-15
-3.85783e-15
3.23798e-13
-8.92083e-13
-1.23677e-13
7.86552e-14
8.08517e-13
-1.88981e-13
-2.5038e-13
-7.40866e-15
1.64771e-14
-2.03035e-15
-3.79219e-18
1.88419e-17
7.61201e-16
-5.43862e-15
4.61625e-15
-1.99732e-17
2.38886e-13
-4.11363e-12
3.23031e-12
-1.37902e-14
4.27263e-12
-2.53595e-12
7.40622e-12
-4.97876e-13
4.78003e-12
-1.17724e-12
3.04348e-13
-2.34059e-12
5.09902e-11
-3.01564e-09
-9.5367e-11
-8.19517e-10
3.70102e-09
-5.67784e-10
1.08637e-10
-8.76704e-09
1.95688e-11
-1.73978e-11
-1.25795e-12
2.14779e-12
4.39912e-19
-5.7672e-19
-1.51086e-23
3.07773e-22
-3.02991e-20
-2.34817e-20
1.88794e-21
2.2897e-20
-8.53691e-21
-4.52808e-19
1.85488e-20
-1.6558e-21
6.45242e-20
-5.67443e-19
-1.19803e-20
-1.64084e-19
2.60568e-19
7.87696e-19
-5.94515e-19
-2.23708e-19
-9.24453e-20
6.74606e-19
-4.58816e-19
5.40462e-19
-4.76675e-18
-3.83201e-18
1.24154e-18
1.18843e-17
-2.1096e-17
-2.40241e-17
1.03058e-17
4.86347e-17
-3.42911e-16
-1.39783e-16
1.38298e-16
7.31059e-15
-5.47737e-14
-9.20564e-15
1.53998e-14
1.12792e-13
-1.23896e-13
-6.03526e-14
5.03685e-14
4.31198e-14
-3.12466e-15
-1.5944e-14
2.64727e-15
2.4736e-15
-2.56845e-14
-3.13883e-15
1.90254e-15
1.34035e-13
-2.82713e-13
-2.86289e-14
2.1077e-14
3.63108e-13
-2.6615e-13
-1.41617e-14
3.03536e-14
2.97069e-14
-2.29466e-16
-1.21875e-16
5.24246e-17
3.07599e-16
-4.26164e-16
2.785e-17
-3.93101e-17
8.07637e-16
-2.29467e-15
1.35903e-15
-6.18596e-16
2.8907e-14
-3.45791e-13
3.30365e-13
-1.38317e-13
3.99129e-12
-5.61521e-11
7.2678e-11
-4.88006e-11
1.72496e-08
-1.57502e-08
1.06399e-08
-1.17204e-08
1.44017e-08
-1.28337e-08
1.41377e-08
-1.52832e-08
9.06171e-09
-3.67243e-11
-9.16645e-13
2.12089e-10
5.62523e-19
-4.92771e-19
1.29886e-23
-3.75398e-23
-1.42631e-22
-8.4259e-22
-2.83587e-22
-8.52488e-22
6.04957e-21
-1.26221e-20
-5.8706e-21
-2.02825e-20
4.80484e-20
1.09769e-19
-9.51075e-20
-8.69851e-20
1.15694e-19
4.10345e-19
-2.64724e-19
-9.33511e-20
6.93865e-21
3.02661e-19
-1.92704e-19
8.93238e-20
-1.91119e-19
-2.28591e-19
3.40978e-20
1.75255e-18
-1.34419e-17
-7.06017e-18
7.34478e-18
8.05505e-17
-6.19323e-16
-2.09518e-16
2.04907e-16
2.9196e-15
-3.6996e-15
-7.52978e-15
4.96507e-16
2.91493e-15
-7.78639e-16
-5.39325e-15
6.04974e-17
6.98594e-17
-7.75918e-17
-7.55689e-17
1.48056e-17
1.82784e-16
-8.78383e-16
-3.25453e-16
3.75706e-17
2.34509e-15
-2.72475e-15
-2.48686e-15
1.9679e-17
2.33803e-15
-5.38569e-16
-2.24281e-15
6.82888e-18
1.016e-16
-1.06663e-16
-3.19723e-17
1.59738e-18
2.10142e-16
-4.88229e-16
3.29554e-17
-4.36956e-17
8.85855e-16
-1.2966e-15
2.32344e-16
-4.01005e-16
2.73555e-15
-4.95628e-14
9.95738e-15
-1.10011e-14
8.02795e-14
-1.45127e-12
3.24698e-12
-1.89495e-12
8.22829e-11
-1.73116e-09
2.0825e-09
-6.80953e-11
3.66365e-09
-1.20135e-08
1.39782e-08
-7.6561e-09
1.44132e-08
-9.72904e-09
-2.09807e-09
4.01102e-09
4.0913e-19
-3.28983e-19
5.659e-24
-4.95683e-23
2.49682e-22
4.33494e-22
-3.06472e-22
-1.15153e-21
3.83151e-21
8.67236e-21
-6.40058e-21
-9.74154e-21
1.98859e-20
6.44347e-20
-3.94884e-20
-3.23933e-20
3.9565e-20
1.61356e-19
-9.35771e-20
-3.18208e-20
1.06976e-20
1.17007e-19
-6.76454e-20
1.17171e-20
-3.07304e-20
-1.29829e-20
8.0098e-21
1.39695e-18
-1.47076e-17
-8.05796e-18
4.31952e-18
3.07702e-17
-2.71413e-17
-6.93275e-17
1.01404e-17
1.33766e-17
-8.14456e-18
-1.63616e-17
1.60691e-18
6.77186e-18
-9.67004e-18
-5.20922e-18
2.62173e-18
1.76358e-17
-2.28749e-17
-1.13826e-17
7.89607e-18
2.34538e-17
-1.83738e-17
-1.02047e-17
5.11067e-18
1.18325e-17
-9.26165e-18
-3.2111e-18
1.66748e-18
9.72276e-18
-1.35157e-17
-1.85537e-18
2.17555e-18
6.16098e-17
-4.90364e-16
-2.31169e-18
2.12366e-17
2.28466e-15
-5.46332e-15
2.16757e-16
-6.92763e-16
9.67518e-15
-1.79021e-14
2.73281e-15
-3.62144e-15
2.15244e-14
4.87345e-15
1.23954e-14
-1.14217e-15
-6.76287e-14
1.61828e-12
3.98665e-13
-2.2466e-12
-8.48163e-12
6.38237e-11
4.64293e-11
-9.74058e-10
9.29204e-10
-1.13455e-08
4.00743e-09
-1.00025e-09
7.00751e-09
-2.3724e-10
-1.47604e-09
6.08838e-10
2.58912e-19
-2.0054e-19
1.65873e-24
-1.52565e-23
9.20699e-23
1.73955e-22
-8.8487e-23
-4.10111e-22
1.30561e-21
3.87164e-21
-2.13009e-21
-3.17089e-21
6.14524e-21
2.27141e-20
-1.24183e-20
-9.47651e-21
1.10943e-20
5.18963e-20
-2.76251e-20
-9.01345e-21
3.98184e-21
3.75718e-20
-2.01595e-20
1.29686e-21
-5.58568e-21
-3.4654e-21
5.09e-22
1.07361e-19
-3.28746e-19
-6.67141e-19
4.679e-20
3.55443e-19
-3.1073e-19
-8.30634e-19
8.15609e-20
3.46055e-19
-4.76002e-19
-4.53999e-19
1.66979e-19
9.61387e-19
-2.1282e-18
-1.52097e-18
5.68361e-19
3.14246e-18
-3.34309e-18
-3.26861e-18
9.78983e-19
3.0777e-18
-2.02987e-18
-2.0698e-18
6.29329e-19
1.76201e-18
-2.03117e-18
-8.91512e-19
4.47979e-19
6.74844e-18
-6.59191e-17
-3.57956e-18
9.98922e-18
6.32662e-16
-3.17457e-15
-9.83771e-17
2.07268e-16
7.89032e-15
-1.24172e-14
7.83396e-16
-5.88736e-16
1.68868e-14
-4.08643e-14
3.45905e-15
4.11916e-15
1.94883e-13
-1.22235e-12
3.08242e-14
6.15828e-13
5.81188e-12
-4.8512e-11
1.75485e-11
-1.89522e-12
4.46632e-09
-7.68192e-09
1.99909e-09
-1.97511e-09
8.07448e-09
-7.5661e-10
-4.43729e-10
5.64535e-10
2.56208e-10
-2.42448e-10
-1.60212e-10
1.11874e-10
1.53264e-19
-1.15615e-19
8.36974e-25
-3.01036e-24
2.09566e-23
4.17707e-23
-1.853e-23
-1.02038e-22
3.34745e-22
1.10192e-21
-5.42872e-22
-8.06868e-22
1.52543e-21
6.49165e-21
-3.25731e-21
-2.28559e-21
2.62949e-21
1.41545e-20
-6.99616e-21
-2.18951e-21
1.16904e-21
1.04639e-20
-5.25407e-21
-1.67795e-22
-3.03249e-22
-2.64043e-22
-3.23633e-22
6.51176e-22
-2.5052e-21
-3.71883e-21
4.80002e-22
6.91997e-21
-1.57043e-20
-1.74982e-20
5.17263e-21
2.68779e-20
-4.1032e-20
-5.69565e-20
1.47678e-20
7.6544e-20
-1.66175e-19
-1.52326e-19
3.99272e-20
2.42448e-19
-2.58616e-19
-2.72961e-19
7.8608e-20
2.21666e-19
-2.07221e-19
-1.84301e-19
5.96377e-20
2.88771e-19
-1.47894e-18
-3.68913e-19
4.1114e-19
1.55782e-17
-1.46688e-16
-1.85533e-17
2.66486e-17
9.8249e-16
-3.00681e-15