/*--------------------------------*- C++ -*----------------------------------*\
| =========                 |                                                 |
| \\      /  F ield         | OpenFOAM: The Open Source CFD Toolbox           |
|  \\    /   O peration     | Version:  v1912                                 |
|   \\  /    A nd           | Website:  www.openfoam.com                      |
|    \\/     M anipulation  |                                                 |
\*---------------------------------------------------------------------------*/
FoamFile
{
    version     2.0;
    format      ascii;
    class       volScalarField;
    location    "0.65";
    object      p;
}
// * * * * * * * * * * * * * * * * * * * * * * * * * * * * * * * * * * * * * //

dimensions      [1 -1 -2 0 0 0 0];


internalField   nonuniform List<scalar> 
9072
(
459.628
486.673
487.475
494.895
511.391
529.553
546.336
565.487
587.35
611.137
636.127
661.774
687.687
713.622
739.395
764.169
784.901
794.869
815.724
826.367
829.927
836.552
913.041
399.62
426.867
427.533
434.181
451.313
470.21
486.939
506.027
527.976
551.902
577.019
602.773
628.739
654.661
680.311
705.107
727.435
737.773
751.197
772.176
764.646
749.017
832.879
338.945
366.505
366.416
370.505
388.922
410.56
427.093
446.096
468.085
492.161
517.495
543.522
569.669
595.644
621.09
645.346
666.985
680.014
694.414
729.585
704.801
681.589
750.36
278.587
305.821
304.238
300.779
320.823
350.911
367.159
385.822
407.759
431.999
457.609
484.081
510.55
536.696
562.1
586.169
607.786
624.871
642.173
671.063
659.078
641.539
692.501
219.551
244.823
241.169
228.572
250.68
291.53
307.205
325.211
347.039
371.459
397.58
424.493
451.442
477.882
503.381
527.461
549.404
568.574
587.459
610.012
613.213
610.775
644.976
162.204
184.389
179.006
164.284
188.83
232.07
246.477
264.014
285.858
310.534
337.236
364.827
392.405
419.258
444.972
469.201
491.559
511.958
531.85
552.658
565.611
574.873
597.728
105.299
126.701
118.061
107.787
128.948
166.415
183.535
201.993
224.08
249.161
276.643
305.122
333.498
360.873
386.89
411.345
434.088
455.312
475.948
496.686
514.247
529.909
549.699
45.1616
72.5927
54.8207
53.1545
68.831
97.3534
118.654
139.084
161.591
187.238
215.781
245.409
274.788
302.773
329.153
353.856
376.895
398.646
419.876
441.204
461.6
481.508
502.842
544.549
445.35
395.291
385.881
397.04
518.097
979.669
1069
1111.51
952.107
602.304
850.775
560.209
334.449
313.357
360.009
560.854
1341.93
1371.77
447.743
367.566
362.918
362.23
365.04
415.756
865.732
979.549
1085.12
851.36
446.723
427.168
248.219
245.428
250.573
277.546
390.259
1054.54
1262.67
408.116
362.578
362.264
362.057
360.64
390.73
684.445
850.412
1121.7
984.183
300.644
230.997
225.903
223.834
222.703
220.362
220.157
457.208
1197.78
393.805
362.446
362.138
362.093
325.921
328.92
474.515
642.601
1084.71
874.889
238.381
228.88
225.557
223.418
222.705
219.973
216.573
241.091
1051.81
382.755
362.659
362.099
337.571
263.31
228.691
218.277
298.185
868.499
409.641
232.087
228.179
225.27
222.257
223.471
219.678
215.594
218.579
713.723
373.36
363.257
354.214
276.336
194.042
121.973
44.5084
44.4572
485.392
287.497
230.247
227.139
225.136
220.551
223.761
219.239
215.584
216.382
346.043
369.883
367.303
308.427
211.627
122.032
47.4179
43.7433
38.3524
150.654
294.529
230.422
226.288
225.73
220.229
220.619
217.011
215.025
216.696
223.385
353.967
332.818
250.606
144.02
51.2404
42.2864
43.0441
35.7889
89.1128
508.925
240.726
227.299
225.809
224.239
210.961
212.163
214.059
215.887
219.556
2.18251
16.3086
6.93611
13.854
13.8995
25.5026
38.8603
56.9583
79.5858
106.962
137.548
168.951
199.879
228.694
255.63
280.653
303.895
325.985
347.756
369.965
393.251
417.861
444.761
1.53014
1.63765
1.44639
1.28616
1.37652
1.43339
1.47005
1.49895
2.15331
7.47321
20.213
45.1473
77.0974
107.438
135.047
160.109
183.335
205.179
226.928
250.107
277.143
309.169
342.928
1.32778
1.38865
1.25768
1.02976
1.1879
1.30136
1.34024
1.35423
1.36921
1.39582
1.41728
1.41199
3.73561
12.1416
27.0276
45.7704
64.3914
82.6681
103.057
124.605
154.102
195.708
243.623
1.13641
1.18894
1.14427
1.06169
1.12434
1.17984
1.20032
1.21536
1.23027
1.2444
1.24655
1.24665
1.26332
1.25709
1.23033
1.31645
1.23303
3.84633
8.72833
13.904
24.9125
74.9264
147.057
0.97686
1.04443
1.02592
1.01337
1.03113
1.05009
1.06219
1.07252
1.08244
1.09383
1.09948
1.10588
1.10447
1.10099
1.08385
1.06564
1.03026
1.05043
1.1085
1.207
1.23707
3.37461
14.838
0.817754
0.894998
0.890653
0.890507
0.898345
0.908743
0.918255
0.927493
0.936277
0.945595
0.954112
0.960274
0.96266
0.961811
0.957463
0.952528
0.946391
0.958092
0.995758
1.04889
1.11013
1.17531
1.2841
0.659554
0.737381
0.738487
0.743055
0.750458
0.759452
0.768858
0.778525
0.788259
0.798336
0.808294
0.816967
0.823235
0.826975
0.828252
0.827657
0.827277
0.832605
0.848862
0.877853
0.934705
1.00907
1.06199
0.498886
0.578482
0.580946
0.586893
0.594966
0.604539
0.615038
0.626178
0.637817
0.64999
0.662436
0.674336
0.684661
0.692695
0.69793
0.699729
0.697579
0.692581
0.687166
0.677422
0.68613
0.753359
0.842212
0.335267
0.416594
0.419401
0.425834
0.434599
0.445182
0.457156
0.470263
0.484359
0.499401
0.5152
0.531136
0.546124
0.558905
0.568164
0.571844
0.567102
0.551361
0.525419
0.482749
0.43079
0.432745
0.512075
0.167466
0.251066
0.253977
0.260698
0.270115
0.281768
0.295301
0.310517
0.327303
0.345591
0.365277
0.385934
0.406446
0.425059
0.439608
0.446763
0.441011
0.416321
0.370924
0.297133
0.205302
0.133869
0.190853
-0.00541969
0.0811922
0.0844683
0.09154
0.101565
0.114194
0.129186
0.146418
0.165841
0.18744
0.211243
0.237069
0.263911
0.289656
0.311316
0.324339
0.320296
0.287565
0.214635
0.0954624
-0.0473259
-0.115288
-0.0438239
-0.183469
-0.0933205
-0.0892428
-0.0817295
-0.0712006
-0.0578147
-0.0416579
-0.0227412
-0.00101967
0.0236251
0.0514094
0.0824206
0.11596
0.149857
0.180437
0.202031
0.203659
0.166109
0.0708132
-0.073639
-0.224282
-0.246628
-0.219894
-0.365492
-0.272152
-0.267058
-0.259184
-0.248369
-0.23457
-0.217713
-0.197688
-0.174312
-0.147281
-0.116178
-0.0806433
-0.040895
0.00126428
0.0417869
0.0740667
0.0851672
0.0477025
-0.0632605
-0.222785
-0.337396
-0.370825
-0.426709
-0.549764
-0.454452
-0.448732
-0.440822
-0.430101
-0.416371
-0.399445
-0.379103
-0.355014
-0.326692
-0.293572
-0.255042
-0.210748
-0.16185
-0.112393
-0.0697255
-0.0479555
-0.0804973
-0.202768
-0.372484
-0.480042
-0.540211
-0.628287
-0.735891
-0.639583
-0.634055
-0.626592
-0.616454
-0.603392
-0.587173
-0.567503
-0.543938
-0.515897
-0.482729
-0.443632
-0.397817
-0.345839
-0.291461
-0.243069
-0.217452
-0.248339
-0.365194
-0.524119
-0.649435
-0.730987
-0.787388
-0.9251
-0.827706
-0.82298
-0.816369
-0.807287
-0.795526
-0.780867
-0.763004
-0.741468
-0.71569
-0.685053
-0.648718
-0.605799
-0.556534
-0.50413
-0.457319
-0.434955
-0.472043
-0.588999
-0.739509
-0.871788
-0.977791
-0.994052
-1.11774
-1.0192
-1.01536
-1.00985
-1.00223
-0.992369
-0.980107
-0.965206
-0.947301
-0.925992
-0.900881
-0.871404
-0.837095
-0.798549
-0.758735
-0.725872
-0.718309
-0.775515
-0.90463
-1.01919
-1.12036
-1.34928
-1.3193
-1.313
-1.21366
-1.2107
-1.2065
-1.2007
-1.19325
-1.18411
-1.17322
-1.16043
-1.14571
-1.12914
-1.11089
-1.09173
-1.07402
-1.06295
-1.07024
-1.11859
-1.3145
-1.54419
-1.63668
-1.51429
-1.96341
-1.89016
-1.51008
-1.41032
-1.40831
-1.4056
-1.40187
-1.39723
-1.3918
-1.38572
-1.3792
-1.37272
-1.36712
-1.36381
-1.36565
-1.37875
-1.41551
-1.50421
-1.71668
-2.39971
-4.41734
-5.46707
-4.99029
-4.20737
-4.22482
-1.70831
-1.60846
-1.60743
-1.60629
-1.60482
-1.60322
-1.60181
-1.601
-1.60137
-1.604
-1.61061
-1.62403
-1.64959
-1.69794
-1.79091
-1.97991
-2.40679
-3.60497
-7.16585
-9.63255
-5.43248
-5.10217
-5.23916
-1.90701
-1.80739
-1.8073
-1.80775
-1.80854
-1.81003
-1.81268
-1.81715
-1.82442
-1.83604
-1.85452
-1.88383
-1.93103
-2.00935
-2.14419
-2.38792
-2.85988
-3.83342
-5.82222
-7.14157
-6.03964
-5.49524
-5.6155
-2.10553
-2.00639
-2.00717
-2.0091
-2.01205
-2.01646
-2.02292
-2.03231
-2.04585
-2.06545
-2.09405
-2.13617
-2.19909
-2.29566
-2.44728
-2.69041
-3.08479
-3.71133
-4.60979
-5.38865
-5.4295
-5.30052
-5.33396
-2.30327
-2.20484
-2.20636
-2.20961
-2.21449
-2.22148
-2.23128
-2.24487
-2.26362
-2.28955
-2.32571
-2.37644
-2.44829
-2.55155
-2.7014
-2.91879
-3.22969
-3.65231
-4.15601
-4.59304
-4.79578
-4.84943
-4.87264
-2.49962
-2.40212
-2.40425
-2.4086
-2.41508
-2.42421
-2.43673
-2.45363
-2.4763
-2.50669
-2.54759
-2.60285
-2.67767
-2.77938
-2.91771
-3.10342
-3.34554
-3.64325
-3.97014
-4.26385
-4.46197
-4.56893
-4.62104
-2.694
-2.59773
-2.60031
-2.60552
-2.61325
-2.62403
-2.63856
-2.6578
-2.68306
-2.71606
-2.75919
-2.81559
-2.88913
-2.98458
-3.1076
-3.26326
-3.45346
-3.67312
-3.90483
-4.11887
-4.28729
-4.40303
-4.47516
-2.88588
-2.79123
-2.79416
-2.79996
-2.80857
-2.82049
-2.83634
-2.857
-2.88363
-2.91767
-2.96102
-3.01607
-3.08563
-3.17262
-3.28
-3.40982
-3.56147
-3.72988
-3.90416
-4.06875
-4.20937
-4.31939
-4.4001
-3.07536
-2.98226
-2.98551
-2.99167
-3.00083
-3.01341
-3.02995
-3.05121
-3.07814
-3.11196
-3.15407
-3.2062
-3.27026
-3.34803
-3.44094
-3.54944
-3.67223
-3.80533
-3.94188
-4.07315
-4.19116
-4.29123
-4.37261
-3.26246
-3.1707
-3.17419
-3.18054
-3.18994
-3.20275
-3.21944
-3.24061
-3.26704
-3.29967
-3.33956
-3.38787
-3.44581
-3.51444
-3.5944
-3.68546
-3.78624
-3.89382
-4.0038
-4.111
-4.2107
-4.29978
-4.37718
-3.44718
-3.35665
-3.36023
-3.36659
-3.37595
-3.38862
-3.405
-3.42555
-3.45086
-3.48164
-3.51867
-3.56272
-3.6145
-3.67457
-3.74316
-3.81983
-3.90337
-3.99168
-4.08186
-4.17068
-4.25522
-4.33344
-4.4044
-3.6296
-3.54023
-3.54371
-3.5499
-3.55899
-3.57123
-3.58693
-3.60644
-3.63021
-3.65873
-3.69253
-3.73215
-3.77799
-3.83028
-3.88901
-3.95372
-4.02344
-4.09665
-4.17141
-4.24559
-4.31733
-4.38522
-4.44854
-3.80971
-3.72154
-3.72473
-3.7306
-3.73924
-3.75081
-3.76555
-3.78374
-3.80567
-3.83169
-3.86215
-3.89737
-3.93758
-3.98285
-4.03304
-4.08773
-4.14613
-4.20716
-4.26947
-4.33162
-4.39232
-4.45056
-4.50575
-3.98744
-3.90062
-3.90337
-3.90884
-3.91688
-3.92763
-3.94123
-3.95789
-3.97782
-4.00122
-4.02833
-4.05931
-4.09429
-4.13324
-4.17598
-4.22212
-4.27107
-4.32201
-4.37398
-4.42597
-4.47703
-4.52638
-4.57351
-4.16271
-4.07738
-4.07971
-4.08474
-4.09214
-4.10197
-4.11432
-4.12934
-4.14716
-4.16792
-4.19175
-4.21873
-4.24889
-4.28216
-4.31835
-4.35713
-4.39802
-4.44043
-4.48363
-4.52689
-4.56948
-4.61079
-4.65031
-4.33569
-4.25168
-4.25384
-4.2585
-4.26524
-4.27411
-4.28516
-4.29849
-4.31419
-4.33233
-4.353
-4.37622
-4.40196
-4.43012
-4.46053
-4.4929
-4.52686
-4.56194
-4.5976
-4.6333
-4.66846
-4.70257
-4.73518
-4.50677
-4.42365
-4.42598
-4.43034
-4.43645
-4.44433
-4.45406
-4.4657
-4.4793
-4.49492
-4.51258
-4.53228
-4.55397
-4.57754
-4.60282
-4.62957
-4.6575
-4.68625
-4.71539
-4.74451
-4.77317
-4.80094
-4.82739
-4.67656
-4.59379
-4.59645
-4.60055
-4.60601
-4.61292
-4.62132
-4.63129
-4.64287
-4.65607
-4.6709
-4.68734
-4.70532
-4.72474
-4.74545
-4.76726
-4.78992
-4.81315
-4.83663
-4.86004
-4.88303
-4.90525
-4.92635
-4.84567
-4.76285
-4.76571
-4.76948
-4.77427
-4.78018
-4.78728
-4.79563
-4.80525
-4.81616
-4.82834
-4.84176
-4.85635
-4.87203
-4.88866
-4.90608
-4.92411
-4.94251
-4.96106
-4.9795
-4.99759
-5.01504
-5.03156
-5.01442
-4.93138
-4.93413
-4.93744
-4.94149
-4.94639
-4.95221
-4.95898
-4.96674
-4.97547
-4.98518
-4.99581
-5.00732
-5.01962
-5.03259
-5.04612
-5.06005
-5.07423
-5.08848
-5.10262
-5.11647
-5.12984
-5.1425
-5.18294
-5.09966
-5.10197
-5.1047
-5.10796
-5.11183
-5.11637
-5.12162
-5.1276
-5.13429
-5.14168
-5.14975
-5.15843
-5.16766
-5.17736
-5.18743
-5.19775
-5.20821
-5.2187
-5.22909
-5.23929
-5.24917
-5.2586
-5.35124
-5.26771
-5.26943
-5.27147
-5.27388
-5.27671
-5.28001
-5.28378
-5.28806
-5.29283
-5.29807
-5.30376
-5.30986
-5.31631
-5.32306
-5.33004
-5.33715
-5.34433
-5.3515
-5.35861
-5.36563
-5.37256
-5.37935
-5.51934
-5.43555
-5.43663
-5.43795
-5.43948
-5.44127
-5.44333
-5.44569
-5.44835
-5.4513
-5.45453
-5.45801
-5.46173
-5.46566
-5.46974
-5.47394
-5.47819
-5.48246
-5.48672
-5.49095
-5.49518
-5.49953
-5.50417
-5.68746
-5.60328
-5.60371
-5.60428
-5.60494
-5.60569
-5.60656
-5.60754
-5.60865
-5.60988
-5.61122
-5.61265
-5.61418
-5.61579
-5.61745
-5.61915
-5.62086
-5.62257
-5.62426
-5.62594
-5.62766
-5.62959
-5.63227
473.946
476.183
465.936
435.436
364.543
364.829
352.179
324.803
270.833
267.631
244.396
202.063
198.978
187.459
131.209
74.1823
11.4884
34.6657
60.199
45.1007
1.33505
1.50448
7.94049
7.79482
1.06718
1.04642
1.47796
6.80297
0.947156
0.997394
0.985494
1.45228
0.738686
0.819309
0.874342
0.9166
0.363729
0.399958
0.419692
0.424293
-0.0532083
-0.0724376
-0.0882343
-0.0874578
-0.370029
-0.500002
-0.638383
-0.776825
-0.646246
-0.840126
-1.09032
-1.37133
-0.826435
-1.02441
-1.33245
-1.73016
-0.883067
-0.955345
-1.10293
-1.39272
-0.943005
-0.852329
-0.725809
-0.578635
-1.23301
-1.18662
-1.1553
-1.20072
-1.63508
-1.6082
-1.55579
-1.66448
-4.65571
-4.90039
-4.58794
-4.205
-5.387
-5.4683
-5.40983
-5.24632
-5.72372
-5.77071
-5.67993
-5.4965
-5.32994
-5.27942
-5.17744
-5.03238
-4.85644
-4.82228
-4.77113
-4.70155
-4.62848
-4.61763
-4.60007
-4.57414
-4.50785
-4.51606
-4.52022
-4.52002
-4.44922
-4.46963
-4.48705
-4.5016
-4.4293
-4.45596
-4.4804
-4.50265
-4.43524
-4.46407
-4.49119
-4.51656
-4.46012
-4.48864
-4.51572
-4.54129
-4.49971
-4.5264
-4.55188
-4.57606
-4.55111
-4.57509
-4.59817
-4.62016
-4.6125
-4.63329
-4.65355
-4.67294
-4.68297
-4.70037
-4.71753
-4.73412
-4.76197
-4.77611
-4.79007
-4.80369
-4.84899
-4.86024
-4.87123
-4.88195
-4.94347
-4.9523
-4.96081
-4.96901
-5.0449
-5.05173
-5.05824
-5.06441
-5.15267
-5.15785
-5.16272
-5.16723
-5.26623
-5.27012
-5.27375
-5.27706
-5.38506
-5.38805
-5.39089
-5.39354
-5.50849
-5.51093
-5.5134
-5.51585
-5.63552
-5.63766
-5.64004
-5.64263
354.811
278.299
178.541
67.0174
41.2238
41.6755
42.5428
50.6242
215.879
866.759
644.901
461.462
359.619
215.946
209.797
210.862
213.349
214.849
214.55
269.3
153.291
48.0372
38.0378
40.0731
41.3318
42.7626
21.9224
248.168
1239.09
1515.49
864.88
224.204
211.283
210.1
210.546
212.377
213.859
213.801
131.279
33.891
33.4229
36.3665
37.8609
38.9342
50.9068
130.831
151.299
332.465
853.005
541.438
203.479
206.899
208.854
210.985
212.143
213.096
212.353
33.3043
26.4964
26.8923
26.8158
30.8519
30.0874
103.389
120.877
130.626
129.542
375.841
262.513
201.859
203.525
205.653
211.068
212.031
211.995
212.55
28.4218
22.1663
13.696
3.28391
18.3672
17.233
91.9787
117.449
123.923
123.156
196.916
204.727
201.875
202.738
203.188
211.25
212.413
211.681
211.413
20.0001
18.7366
11.86
7.7107
14.4522
12.1813
94.1666
119.187
121.428
151.543
180.502
201.166
201.564
201.4
198.882
207.472
212.412
211.234
215.872
32.8529
21.8276
17.6841
18.3315
21.675
22.1762
103.733
118.983
118.484
153.864
201.762
201.671
201.776
201.563
200.928
202.938
208.329
210.763
210.972
42.8475
29.3429
23.7451
23.7904
24.8275
31.1649
80.8762
110.674
122.089
185.933
202.159
202.087
202.369
202.307
202.492
197.791
208.54
210.192
211.073
28.3796
43.361
28.8771
24.8846
21.7373
91.7409
162.342
126.06
118.645
165.46
202.275
202.627
202.952
203.075
201.516
201.532
203.456
210.258
210.987
5.29481
39.8595
37.0855
39.5869
32.2602
89.0283
133.228
145.403
122.48
159.127
203.108
202.992
203.268
203.251
207.447
213.323
182.748
210.603
211.062
-0.212919
24.0675
43.127
38.2093
30.4512
34.3145
99.0589
103.815
118.243
172.318
201.111
202.952
203.311
191.683
191.727
188.906
181.994
199.998
198.969
-0.949231
-0.63788
25.4561
47.7473
21.8044
32.2079
71.7384
35.4002
72.8449
158.604
210.634
188.503
186.182
158.958
121.633
134.829
153.503
196.304
227.652
-1.76969
-1.99564
-2.04931
30.6056
69.2496
55.5229
4.09297
2.21673
1.91671
47.8836
127.382
138.609
122.916
95.283
73.5649
74.3886
93.1613
156.922
225.031
-2.30712
-2.48956
2.37783
32.9897
15.5258
0.381972
-0.27667
-0.781314
-1.3592
-0.608442
17.4564
50.6276
48.1191
41.8637
21.6991
5.81678
7.98059
24.0241
144.994
-1.83727
-4.10183
-0.350838
0.615744
0.978485
-0.111288
-1.6608
-3.10248
-2.67392
-1.54473
-1.19739
-7.3891
-24.0599
11.8771
0.703021
1.06135
1.37869
3.14896
6.70175
-1.10054
-3.49687
-3.43109
-1.13376
0.179549
0.0626745
-1.88511
-4.0993
-3.33359
-1.31966
-1.23616
-1.86434
-3.2787
-2.05694
0.139501
0.778814
1.12991
1.91671
24.2279
-1.40598
-3.13828
-3.30096
-1.57899
-0.44183
-0.0993756
-1.39543
-2.74549
-2.32966
-1.29228
-1.27646
-2.00777
-2.63466
-2.23377
-0.998627
-0.117261
0.712676
0.322054
20.1518
-1.65726
-2.54246
-2.6761
-1.97446
-1.42765
-1.17346
-2.05886
-2.42486
-2.37424
-1.96145
-1.86314
-2.45911
-2.95818
-2.85762
-2.24716
-1.90862
-1.64973
-0.77928
0.334859
-3.9394
-3.51693
-3.08927
-2.61148
-2.26384
-2.09269
-2.36858
-2.27643
-2.35479
-2.26476
-2.29872
-2.81111
-3.20332
-3.20445
-2.95414
-2.91386
-3.03622
-3.66748
-3.65153
-4.90097
-4.08016
-3.44387
-3.00692
-2.66858
-2.46407
-2.14316
-1.98247
-2.15962
-2.13666
-2.44049
-2.98921
-3.29967
-3.45906
-3.46741
-3.46945
-3.74731
-4.05208
-3.97211
-5.13261
-4.32198
-3.73383
-3.35662
-3.00785
-2.80217
-2.19967
-2.04874
-1.95434
-1.89327
-2.4892
-3.09635
-3.42295
-3.81274
-3.79227
-3.67402
-3.76064
-3.94984
-3.8888
-4.7921
-4.32985
-3.99637
-3.81131
-3.7869
-4.65401
-5.59604
-2.94
-1.154
-1.62166
-2.38891
-3.19068
-3.7635
-4.2877
-4.08912
-3.77918
-3.6686
-3.60828
-3.47103
-4.59088
-4.38409
-4.24812
-4.26781
-4.64242
-6.37262
-6.54595
-3.72244
-1.73155
-2.25529
-2.72931
-3.32963
-4.13397
-4.5345
-4.24318
-3.7855
-3.52438
-3.30967
-3.17015
-4.53188
-4.45762
-4.43631
-4.53841
-4.84024
-5.41044
-5.5344
-5.12105
-3.9283
-3.38422
-3.0951
-3.67692
-4.32628
-4.78651
-4.28691
-3.66906
-3.34829
-3.1386
-2.99763
-4.51694
-4.5153
-4.5484
-4.65285
-4.83343
-5.10262
-5.23982
-5.2064
-5.01194
-4.40642
-4.45112
-4.07559
-4.54323
-4.86993
-4.11604
-3.36148
-3.09531
-2.98716
-2.89675
-4.51964
-4.55452
-4.60846
-4.69811
-4.82342
-4.99646
-5.26995
-5.34282
-5.05943
-4.86333
-4.0112
-4.2236
-4.60752
-4.72082
-3.44745
-2.75095
-2.72336
-2.89066
-2.87865
-4.53106
-4.5819
-4.64095
-4.71591
-4.8074
-4.93491
-5.19244
-5.14171
-5.00106
-4.86208
-4.83578
-4.81188
-4.59849
-3.41019
-2.27289
-2.13746
-2.41607
-3.27143
-3.12939
-4.54899
-4.60487
-4.66212
-4.72345
-4.78449
-4.83727
-4.8845
-4.86589
-4.90221
-4.88402
-4.79815
-5.13166
-4.60575
-3.34827
-2.48095
-2.336
-2.76714
-3.75431
-3.72536
-4.57399
-4.62922
-4.68246
-4.73473
-4.78304
-4.82165
-4.84394
-4.86135
-4.91946
-4.89346
-4.82202
-4.72265
-4.39616
-3.76396
-3.21347
-3.27567
-3.85281
-4.09533
-4.2295
-4.60697
-4.65862
-4.70731
-4.75407
-4.79875
-4.84117
-4.87969
-4.9496
-4.97923
-4.97759
-4.95226
-4.8878
-4.45819
-4.06184
-3.76485
-3.75516
-4.25609
-4.28244
-4.68649
-4.64815
-4.69451
-4.73803
-4.7799
-4.82189
-4.86934
-4.93533
-5.02631
-5.03296
-5.07727
-5.20713
-5.33686
-5.1751
-4.65102
-4.23298
-3.52499
-4.28866
-4.35639
-4.44862
-4.69745
-4.73741
-4.77456
-4.8099
-4.84493
-4.88234
-4.94124
-5.00257
-5.05262
-5.14652
-5.44632
-5.63197
-5.7203
-5.24272
-4.7621
-5.0374
-4.48247
-4.42532
-4.46278
-4.75497
-4.78803
-4.81782
-4.84476
-4.86896
-4.88575
-4.91002
-4.96466
-5.0595
-5.23232
-5.50033
-5.9255
-5.88063
-5.28388
-4.76351
-4.76559
-4.56064
-4.53624
-4.48919
-4.8209
-4.84731
-4.86985
-4.88887
-4.90349
-4.90623
-4.91668
-4.96769
-5.04431
-5.17568
-5.35096
-5.62002
-5.50618
-5.08128
-4.7287
-4.66688
-4.73287
-4.67191
-4.62915
-4.8956
-4.91598
-4.93214
-4.9458
-4.95478
-4.95512
-4.97269
-5.00666
-5.03072
-5.04594
-5.11677
-5.2154
-5.11476
-4.91316
-5.16052
-5.22093
-4.86776
-4.82383
-4.84776
-4.97945
-4.99481
-5.00596
-5.01657
-5.0241
-5.03047
-5.05321
-5.08198
-5.06848
-5.0321
-5.03474
-5.04796
-4.93119
-4.7197
-4.78731
-5.14402
-4.99065
-4.96566
-5.02516
-5.07216
-5.08377
-5.09227
-5.10024
-5.10309
-5.11248
-5.14804
-5.20341
-5.16857
-5.10348
-5.05228
-5.0084
-4.88966
-4.61336
-4.64089
-5.11488
-5.1091
-5.15397
-5.2531
-5.17271
-5.18044
-5.18526
-5.18309
-5.18003
-5.19585
-5.25338
-5.36721
-5.29582
-5.18041
-5.08581
-5.03262
-4.98214
-5.00189
-5.1301
-5.20981
-5.25053
-5.38668
-5.40836
-5.28093
-5.28559
-5.28581
-5.27888
-5.27207
-5.28074
-5.3456
-5.45662
-5.36787
-5.22282
-5.10433
-5.07038
-5.14748
-5.35496
-5.39179
-5.36467
-5.37374
-5.45935
-5.43554
-5.39669
-5.40032
-5.39959
-5.39187
-5.3785
-5.36614
-5.40412
-5.43722
-5.39122
-5.27182
-5.10004
-5.13741
-5.4277
-5.54247
-5.52146
-5.51116
-5.51419
-5.5435
-5.58487
-5.51901
-5.52343
-5.52456
-5.51924
-5.50302
-5.46892
-5.43163
-5.3598
-5.46558
-5.50655
-5.18726
-5.45619
-5.59313
-5.64042
-5.64813
-5.65056
-5.65962
-5.68669
-5.74696
-5.64636
-5.65315
-5.65879
-5.66014
-5.65073
-5.61528
-5.5259
-5.28741
-5.84066
-6.57664
-5.85773
-5.73846
-5.7596
-5.7734
-5.77928
-5.78429
-5.79293
-5.81022
-5.83078
487.657
486.491
490.055
502.227
520.845
537.819
555.531
576.127
599.054
623.516
648.896
674.716
700.663
726.544
752.056
775.462
791.075
801.928
827.456
824.161
828.635
872.217
918.22
427.935
426.763
429.656
441.61
461.312
478.459
496.094
516.695
539.747
564.351
589.846
615.746
641.72
667.535
692.912
716.627
735.603
739.639
766.176
773.186
743.976
786.282
851.614
367.313
366.305
367.247
377.79
400.735
418.695
436.186
456.769
479.92
504.713
530.476
556.594
582.7
608.461
633.437
656.624
675.321
683.606
712.775
730.567
676.569
715.396
778.604
306.406
305.459
301.687
306.548
337.922
358.97
376.037
396.438
419.652
444.694
470.907
497.326
523.69
549.52
574.356
597.386
617.002
632.001
656.053
673.881
639.087
666.131
713.187
245.693
244.273
234.523
232.237
274.73
299.908
315.62
335.736
358.986
384.359
411.006
437.998
464.755
490.776
515.636
538.755
559.312
577.475
598.624
615.232
606.809
626.466
658.477
186.564
183.165
171.035
168.725
214.636
240.057
254.509
274.529
297.89
323.718
350.982
378.668
405.954
432.278
457.295
480.637
501.963
521.757
542.345
560.584
569.229
585.677
607.393
130.754
123.149
111.327
113.187
149.314
175.958
192.194
212.649
236.264
262.707
290.825
319.389
347.342
374.066
399.323
422.933
444.847
465.633
486.421
506.033
521.748
539.76
559.127
76.6721
63.0011
51.9084
60.4736
82.6606
109.144
128.602
150.03
173.985
201.274
230.537
260.216
288.976
316.172
341.713
365.577
387.883
409.289
430.563
451.575
471.387
492.194
513.742
493.552
414.406
386.999
388.554
408.998
794.686
1031.97
1118.19
1065.05
716.471
737.688
753.904
410.892
311.689
334.333
408.459
908.43
1526.52
1364.87
393.44
364.559
362.476
362.329
378.919
685.419
929.299
1049.58
1100.68
527.915
497.792
286.896
246.682
245.617
263.897
303.28
632.326
1320.71
1316.41
362.117
362.288
362.2
362.115
361.639
548.286
766.642
977.336
1252.72
541.427
240.457
228.034
224.647
223.22
221.833
218.764
253.147
924.976
1294.53
362.301
362.175
362.123
352.964
313.289
396.761
541.171
840.126
1278.25
300.024
230.385
227.221
224.226
223.011
221.887
217.781
219.088
428.426
1217.5
360.94
362.023
360.439
296.965
240.265
228.549
221.45
552.279
1094.03
245.007
229.592
226.769
223.461
222.571
222.375
216.998
215.688
240.604
1038.5
357.045
362.906
321.384
233.5
158.971
78.4451
40.9419
123.494
841.604
228.485
228.32
226.534
222.999
220.753
223.62
216.416
215.757
222.497
801.032
359.948
358.69
258.858
167.11
75.1429
43.0866
41.473
26.4613
625.086
230.462
227.702
226.443
223.708
218.784
221.449
214.95
215.577
214.869
588.925
355.965
299.083
197.466
95.3448
42.0701
42.7852
40.8923
18.3958
518.558
299.552
231.495
226.712
224.621
220.451
209.963
213.339
214.908
215.709
438.172
13.6299
13.7324
8.79239
12.6543
19.5846
31.8541
47.1997
67.7494
92.7129
122.027
153.188
184.572
214.52
242.411
268.362
292.495
315.013
336.86
358.696
381.479
405.333
431.014
461.745
1.6089
1.59074
1.32111
1.31773
1.42492
1.44403
1.49635
1.56272
4.22056
12.3798
31.2047
60.9284
92.4714
121.7
147.835
171.857
194.38
215.97
238.155
263.033
292.585
326.357
358.285
1.39132
1.36556
1.09875
1.08185
1.2611
1.32571
1.3473
1.36093
1.38404
1.42661
1.3935
1.89638
7.00379
18.8432
36.4788
54.5343
73.9404
92.3639
113.548
138.004
173.291
220.003
263.837
1.20914
1.18077
1.09045
1.07862
1.16116
1.19178
1.20698
1.22253
1.23783
1.24783
1.24641
1.24954
1.26517
1.23017
1.26337
1.30499
2.32097
5.67595
11.5584
17.8664
42.6969
112.134
180.801
1.0541
1.03434
1.01757
1.01892
1.04235
1.05643
1.06725
1.07761
1.08782
1.09761
1.10239
1.10527
1.10592
1.08992
1.07801
1.04474
1.03229
1.07223
1.15492
1.25473
1.44227
11.4799
10.3485
0.898685
0.89197
0.890006
0.893559
0.903687
0.913572
0.922871
0.931978
0.940776
0.95016
0.957563
0.961815
0.962957
0.959458
0.955957
0.948526
0.949177
0.973641
1.02193
1.07459
1.15005
1.22514
1.33152
0.739087
0.737055
0.740465
0.746434
0.754861
0.764122
0.77366
0.783394
0.793231
0.803414
0.812871
0.820415
0.825464
0.827814
0.828239
0.827201
0.828795
0.839231
0.861546
0.901013
0.973076
1.03858
1.07906
0.578978
0.578954
0.583566
0.590684
0.599601
0.609695
0.620538
0.631938
0.643836
0.656224
0.668519
0.679749
0.688999
0.695698
0.699279
0.699078
0.695337
0.689757
0.683364
0.675459
0.713099
0.795908
0.892595
0.416917
0.417292
0.422239
0.429944
0.439691
0.451014
0.46358
0.477192
0.491766
0.507235
0.523209
0.538828
0.552867
0.564076
0.570878
0.570694
0.560715
0.539497
0.507354
0.453552
0.425137
0.452408
0.644278
0.251276
0.251838
0.256932
0.265093
0.275688
0.288316
0.302706
0.31872
0.336264
0.355274
0.375536
0.396307
0.416114
0.433007
0.444401
0.445907
0.431268
0.396326
0.338384
0.249847
0.167707
0.120989
0.311568
0.0810395
0.0821948
0.0875833
0.0962035
0.107571
0.121406
0.137526
0.155857
0.176367
0.199065
0.22394
0.250471
0.277087
0.301224
0.319313
0.325172
0.308236
0.25686
0.160176
0.0243119
-0.101348
-0.0861213
-0.0347284
-0.09432
-0.0918052
-0.0858907
-0.0768312
-0.0648584
-0.0500794
-0.0325459
-0.0122364
0.0109254
0.0371119
0.0665278
0.0989719
0.133059
0.165847
0.192867
0.206345
0.191292
0.125628
0.00445401
-0.155157
-0.255109
-0.2201
-0.285168
-0.274264
-0.269952
-0.263481
-0.254145
-0.241847
-0.22653
-0.208105
-0.186435
-0.161278
-0.132265
-0.098974
-0.0612325
-0.0199179
0.0220679
0.059526
0.0835715
0.0746598
0.00185498
-0.142228
-0.290409
-0.36343
-0.380362
-0.528345
-0.457178
-0.451754
-0.44509
-0.435823
-0.423624
-0.408321
-0.389718
-0.367554
-0.341417
-0.310769
-0.275022
-0.233598
-0.186696
-0.136819
-0.0895882
-0.05477
-0.0544675
-0.130017
-0.290255
-0.436726
-0.512552
-0.573636
-0.719732
-0.641846
-0.636898
-0.630608
-0.621871
-0.610303
-0.595693
-0.577793
-0.556241
-0.530515
-0.499998
-0.463982
-0.421583
-0.372454
-0.318554
-0.265757
-0.225767
-0.223172
-0.296328
-0.445549
-0.59239
-0.695914
-0.756916
-0.843189
-0.829189
-0.825441
-0.81994
-0.812147
-0.801754
-0.788575
-0.77236
-0.75273
-0.729145
-0.701023
-0.667662
-0.62811
-0.581853
-0.530351
-0.47915
-0.441316
-0.443569
-0.521663
-0.665616
-0.806003
-0.934336
-0.994596
-0.984597
-1.02035
-1.01739
-1.01284
-1.00631
-0.997589
-0.98655
-0.973007
-0.956655
-0.937094
-0.913943
-0.886729
-0.854854
-0.818246
-0.778459
-0.740554
-0.71731
-0.735558
-0.835396
-0.968156
-1.05502
-1.25169
-1.36939
-1.26341
-1.21465
-1.21228
-1.20879
-1.2038
-1.19718
-1.18889
-1.1789
-1.16707
-1.15331
-1.13765
-1.1202
-1.10133
-1.08246
-1.06715
-1.06306
-1.08788
-1.18283
-1.45305
-1.65552
-1.60271
-1.70597
-2.05361
-1.6219
-1.41108
-1.40937
-1.40708
-1.40386
-1.39966
-1.39461
-1.38883
-1.38249
-1.37591
-1.36974
-1.36505
-1.3638
-1.37023
-1.39296
-1.45039
-1.58807
-1.93835
-3.1837
-5.46313
-4.99996
-4.64127
-4.05691
-4.50248
-1.60897
-1.60794
-1.60691
-1.60559
-1.60402
-1.60247
-1.6013
-1.60099
-1.60232
-1.60667
-1.61622
-1.63479
-1.66994
-1.7367
-1.86792
-2.14747
-2.83576
-5.08034
-9.12054
-7.72624
-5.03863
-5.19675
-5.29497
-1.80768
-1.80728
-1.8075
-1.80808
-1.80917
-1.81117
-1.81464
-1.82036
-1.82955
-1.84422
-1.86749
-1.90455
-1.96512
-2.0673
-2.24721
-2.58357
-3.25414
-4.68934
-6.80981
-6.6916
-5.61247
-5.53217
-5.66567
-2.0065
-2.00663
-2.00803
-2.01043
-2.01404
-2.01939
-2.02718
-2.03846
-2.05473
-2.07839
-2.11305
-2.16434
-2.2421
-2.36278
-2.55423
-2.86399
-3.3636
-4.12873
-5.07316
-5.48596
-5.34192
-5.30849
-5.34216
-2.2048
-2.20537
-2.20781
-2.21183
-2.21768
-2.22597
-2.23753
-2.25349
-2.27553
-2.30611
-2.34891
-2.40918
-2.49518
-2.61949
-2.80009
-3.06097
-3.42696
-3.89966
-4.39734
-4.72394
-4.83038
-4.8637
-4.87143
-2.40197
-2.40289
-2.40619
-2.41155
-2.41927
-2.42999
-2.44456
-2.46414
-2.49037
-2.52561
-2.57314
-2.63741
-2.7246
-2.8433
-3.00397
-3.2171
-3.4883
-3.80613
-4.12603
-4.37636
-4.52427
-4.60053
-4.6308
-2.59746
-2.59867
-2.60262
-2.60904
-2.61822
-2.63077
-2.64752
-2.66958
-2.69846
-2.73618
-2.78551
-2.84995
-2.93377
-3.04229
-3.18112
-3.35413
-3.56036
-3.78911
-4.01613
-4.20982
-4.35131
-4.44393
-4.49773
-2.79092
-2.79232
-2.79673
-2.80388
-2.81408
-2.82788
-2.84601
-2.86949
-2.89962
-2.93804
-2.98691
-3.04886
-3.12675
-3.22359
-3.34206
-3.4831
-3.64412
-3.8172
-3.98868
-4.1427
-4.26826
-4.36318
-4.43088
-2.98217
-2.98358
-2.98825
-2.99585
-3.00666
-3.02114
-3.03994
-3.0639
-3.09411
-3.13188
-3.17876
-3.23662
-3.30733
-3.39253
-3.49327
-3.60923
-3.73786
-3.8737
-4.00873
-4.13421
-4.24357
-4.33419
-4.4069
-3.17049
-3.17222
-3.17704
-3.18485
-3.19589
-3.21058
-3.22942
-3.25311
-3.28251
-3.31864
-3.36258
-3.41556
-3.47873
-3.55299
-3.63859
-3.73478
-3.83942
-3.94883
-4.05807
-4.16203
-4.25668
-4.33993
-4.41168
-3.35629
-3.35826
-3.36311
-3.37089
-3.38185
-3.39632
-3.41472
-3.43756
-3.46552
-3.49933
-3.53977
-3.5876
-3.64347
-3.70781
-3.78054
-3.86085
-3.94709
-4.03674
-4.12664
-4.21364
-4.29521
-4.36985
-4.43716
-3.54007
-3.54187
-3.54653
-3.55408
-3.5647
-3.57863
-3.59618
-3.61776
-3.64384
-3.67494
-3.71159
-3.75427
-3.80332
-3.85886
-3.92067
-3.98803
-4.05972
-4.13397
-4.2087
-4.28187
-4.35182
-4.41748
-4.47842
-3.72179
-3.72308
-3.72741
-3.73457
-3.74464
-3.75777
-3.7742
-3.79421
-3.81815
-3.84634
-3.87914
-3.91684
-3.95959
-4.00735
-4.05986
-4.11652
-4.17639
-4.23824
-4.30065
-4.36222
-4.42179
-4.47856
-4.53213
-3.90109
-3.90187
-3.90585
-3.91253
-3.92191
-3.93406
-3.94917
-3.96743
-3.98907
-4.0143
-4.04332
-4.0763
-4.11328
-4.15416
-4.19866
-4.24629
-4.29635
-4.34793
-4.40004
-4.45167
-4.50196
-4.55025
-4.59615
-4.07765
-4.07827
-4.08196
-4.08814
-4.09674
-4.10782
-4.12149
-4.13789
-4.15717
-4.17945
-4.20484
-4.23341
-4.26514
-4.2999
-4.33744
-4.37735
-4.41908
-4.46197
-4.5053
-4.54831
-4.59033
-4.63079
-4.66929
-4.25144
-4.25238
-4.25592
-4.26161
-4.2694
-4.27935
-4.29153
-4.30604
-4.32295
-4.34235