/*--------------------------------*- C++ -*----------------------------------*\
| =========                 |                                                 |
| \\      /  F ield         | OpenFOAM: The Open Source CFD Toolbox           |
|  \\    /   O peration     | Version:  v1912                                 |
|   \\  /    A nd           | Website:  www.openfoam.com                      |
|    \\/     M anipulation  |                                                 |
\*---------------------------------------------------------------------------*/
FoamFile
{
    version     2.0;
    format      ascii;
    class       volScalarField;
    location    "0.65";
    object      p_rgh;
}
// * * * * * * * * * * * * * * * * * * * * * * * * * * * * * * * * * * * * * //

dimensions      [1 -1 -2 0 0 0 0];


internalField   nonuniform List<scalar> 
9072
(
503.772
501.387
502.19
509.609
526.106
544.268
561.051
580.202
602.065
625.851
650.842
676.488
702.402
728.337
754.11
778.884
799.209
808.415
830.438
841.053
844.459
851.263
927.748
502.623
500.44
501.106
507.754
524.886
543.784
560.513
579.6
601.549
625.475
650.592
676.346
702.312
728.234
753.884
778.681
800.972
806.537
824.766
845.718
837.952
816.789
906.452
500.806
498.937
498.848
502.937
521.354
542.992
559.525
578.528
600.517
624.593
649.927
675.954
702.101
728.076
753.522
777.778
799.417
812.446
826.847
862.017
833.63
793.138
882.687
499.308
497.112
495.529
492.07
512.113
542.202
558.45
577.113
599.049
623.29
648.899
675.372
701.841
727.987
753.391
777.46
799.076
816.162
833.463
862.354
834.74
802.665
883.792
499.131
494.973
491.319
478.721
500.83
541.68
557.354
575.36
597.189
621.608
647.73
674.643
701.592
728.032
753.531
777.61
799.554
818.723
837.609
860.162
863.362
860.924
895.126
500.642
493.398
488.015
473.292
497.838
541.079
555.486
573.023
594.866
619.543
646.245
673.836
701.414
728.267
753.98
778.209
800.567
820.966
840.859
861.667
874.619
883.881
906.737
502.596
494.568
485.928
475.653
496.805
534.062
551.402
569.86
591.947
617.028
644.51
672.989
701.365
728.74
754.757
779.212
801.955
823.179
843.815
864.553
882.114
897.776
917.566
496.693
499.318
481.515
370.531
430.135
524.079
545.379
565.81
588.317
613.964
642.506
672.134
701.514
729.499
755.879
780.581
803.62
825.371
846.602
867.929
888.326
908.234
929.567
585.789
459.097
408.694
398.303
410.801
532.238
994.243
1083.68
1125.8
966.714
616.63
863.082
574.485
348.725
327.631
373.98
574.513
1355.56
1385.4
538.034
390.287
365.349
362.316
365.165
437.687
939.11
1052.97
1158.32
924.641
515.24
496.229
288.148
311.17
318.741
345.03
460.281
1126.08
1331.16
549.841
362.715
362.399
362.198
374.085
522.632
816.606
982.574
1253.87
1116.32
356.875
231.907
226.143
224.073
222.944
220.645
221.207
532.809
1329.5
406.384
362.643
362.333
362.474
516.306
519.782
665.414
833.501
1275.61
1059.72
239.53
229.478
226.721
224.422
223.051
220.32
216.962
244.372
1242.07
427.357
362.94
362.38
559.133
512.719
478.129
467.683
547.816
1118.14
598.819
232.85
228.931
225.833
222.906
224.475
220.129
216.043
219.125
962.52
427.361
363.622
519.991
584.645
502.27
429.758
104.098
59.486
793.389
487.791
231.176
228.067
226.407
221.244
224.619
220.467
216.705
217.008
611.526
373.507
401.99
675.629
578.945
489.06
139.636
47.076
42.1194
505.352
585.795
231.542
227.407
227.191
221.272
231.964
218.352
216.472
217.482
494.532
788.59
757.374
677.107
570.272
272.223
43.0447
45.8341
40.1173
504.454
930.052
242.675
228.651
249.825
326.182
238.004
212.936
214.554
216.988
538.534
2.75529
219.478
83.7504
200.484
207.707
383.504
473.253
546.416
581.754
609.131
639.717
671.119
702.047
730.862
757.799
782.822
806.063
828.153
849.924
872.133
895.42
920.029
946.929
2.22111
2.36413
2.08241
1.91352
2.00388
2.06076
2.09741
2.12645
18.758
130.827
362.326
601.582
704.461
734.801
762.41
787.473
810.698
832.542
854.291
877.47
904.506
936.532
970.291
2.14389
2.28015
2.01031
1.78232
1.94045
2.05392
2.0928
2.12953
2.12867
2.14928
2.16984
2.1648
62.9301
268.991
531.972
718.195
816.788
835.224
855.614
877.162
906.659
948.265
996.18
2.07677
2.06671
2.02269
1.93944
2.00209
2.0576
2.07808
2.09312
2.12589
2.12511
2.12501
2.13032
2.14144
2.13522
2.10813
2.19424
5.34425
80.7586
221.8
348.988
624.673
867.76
1024.8
2.04241
2.04738
2.03027
2.01631
2.03408
2.05303
2.06513
2.07547
2.08539
2.09678
2.10244
2.10952
2.1079
2.10991
2.09931
2.07681
2.03326
2.05343
2.11151
2.20998
2.24001
73.6385
425.791
2.0085
2.02314
2.0188
2.01865
2.02649
2.03689
2.0464
2.05564
2.06442
2.07393
2.08238
2.08959
2.09216
2.08998
2.08578
2.08068
2.07458
2.08749
2.12516
2.17707
2.23831
2.30358
2.41247
1.97549
1.99072
1.99183
1.9964
2.0038
2.01279
2.0222
2.03187
2.0416
2.05168
2.06164
2.07031
2.07658
2.08035
2.08161
2.081
2.08062
2.08595
2.10236
2.13126
2.2085
2.39821
2.31589
1.94001
1.95701
1.95947
1.96542
1.97349
1.98306
1.99356
2.0047
2.01634
2.02852
2.04097
2.05286
2.06319
2.07123
2.07647
2.07826
2.0761
2.07111
2.06569
2.05651
2.74732
2.8147
2.47105
1.90159
1.92032
1.92312
1.92955
1.93832
1.9489
1.96088
1.97398
1.98808
2.00312
2.01892
2.03486
2.04985
2.06263
2.07189
2.07557
2.07082
2.05508
2.02914
1.98647
1.93465
2.58605
2.72892
1.85898
1.87998
1.88289
1.88961
1.89903
1.91068
1.92422
1.93943
1.95622
1.97451
1.99419
2.01485
2.03536
2.05398
2.06852
2.07568
2.06993
2.04524
1.99984
1.92606
1.84228
2.06837
1.83802
1.81129
1.8353
1.83858
1.84565
1.85568
1.86831
1.8833
1.90053
1.91995
1.94155
1.96535
1.99118
2.01802
2.04377
2.06543
2.07845
2.07441
2.04168
1.96876
1.85
1.94269
1.6856
1.71426
1.75844
1.78599
1.79006
1.79758
1.80811
1.82149
1.83765
1.85657
1.87829
1.90293
1.93072
1.96173
1.99527
2.02916
2.05974
2.08134
2.08297
2.04543
1.95082
2.17531
1.65702
1.63479
1.68031
1.70161
1.73235
1.73744
1.74532
1.75613
1.76993
1.78679
1.80681
1.83019
1.85722
1.88832
1.92386
1.96361
2.00577
2.04629
2.07857
2.08967
2.05258
2.18033
2.28101
1.8445
1.63464
1.59404
1.64253
1.67525
1.68097
1.68887
1.6996
1.71333
1.73025
1.75059
1.77468
1.803
1.83613
1.87465
1.91895
1.96785
2.0173
2.05997
2.08175
2.04939
1.98605
1.91973
1.65056
1.58952
1.50149
1.5816
1.61531
1.62084
1.6283
1.63844
1.6515
1.66772
1.68739
1.71095
1.73899
1.77216
1.81126
1.85708
1.90905
1.96343
2.01182
2.03744
2.00663
1.8897
1.73078
1.60547
1.52394
1.46777
1.51759
1.55238
1.55711
1.56372
1.5728
1.58456
1.59922
1.61708
1.63862
1.6644
1.69503
1.73137
1.77429
1.82355
1.87596
1.92277
1.94513
1.90804
1.79109
1.64058
1.5083
1.40231
1.3863
1.45014
1.48609
1.48992
1.49543
1.50305
1.51291
1.52518
1.54008
1.55798
1.57929
1.6044
1.63388
1.66819
1.70673
1.74655
1.77941
1.78697
1.72977
1.60065
1.48609
1.38492
1.15601
1.18601
1.38007
1.41682
1.41978
1.42397
1.42978
1.43723
1.44636
1.45726
1.47004
1.48477
1.50134
1.51959
1.53875
1.55646
1.56752
1.56023
1.51188
1.31597
1.08567
23.7411
16.0603
0.667078
8.17947
1.30819
1.34535
1.34737
1.35008
1.3538
1.35844
1.36387
1.36996
1.37647
1.38295
1.38855
1.39187
1.39002
1.37693
1.34016
1.25146
1.03927
0.384497
15.2289
23.5158
12.263
3.17794
19.8163
1.23516
1.27241
1.27344
1.27457
1.27605
1.27765
1.27906
1.27987
1.27949
1.27687
1.27026
1.25684
1.23128
1.18293
1.08996
0.900957
0.474283
-0.6727
4.65607
20.1191
11.6694
-2.08608
-2.32665
1.16165
1.19867
1.19876
1.19832
1.19752
1.19604
1.19338
1.18891
1.18165
1.17002
1.15154
1.12223
1.07503
0.996714
0.861878
0.618147
0.146186
-0.826921
-2.76182
-4.0351
-3.00343
-2.43438
-2.25409
1.08832
1.12486
1.12408
1.12215
1.1192
1.11479
1.10833
1.09894
1.0854
1.0658
1.0372
0.99508
0.932158
0.835594
0.683973
0.440838
0.0464594
-0.580065
-1.47654
-2.25395
-2.29514
-2.16242
-2.20097
1.01577
1.05161
1.05008
1.04683
1.04195
1.03497
1.02516
1.01157
0.992823
0.966891
0.930736
0.880007
0.808151
0.70489
0.555042
0.337655
0.0267523
-0.395868
-0.899529
-1.33654
-1.53931
-1.59298
-1.61619
0.944619
0.979515
0.977389
0.973035
0.966557
0.957427
0.944911
0.928009
0.905339
0.874954
0.834051
0.778787
0.703973
0.602258
0.463933
0.278219
0.0360995
-0.261614
-0.588498
-0.882205
-1.08033
-1.18729
-1.2394
0.875436
0.909108
0.906522
0.901317
0.893587
0.882809
0.86828
0.849033
0.823774
0.79077
0.747642
0.691242
0.617704
0.522255
0.399234
0.243575
0.0533703
-0.166282
-0.397993
-0.612033
-0.780452
-0.896192
-0.968325
0.808748
0.840803
0.837868
0.832075
0.823459
0.811541
0.795687
0.775026
0.748403
0.714359
0.671013
0.615956
0.546401
0.459412
0.352027
0.222209
0.0705616
-0.0978521
-0.272127
-0.436723
-0.57734
-0.687361
-0.76807
0.744459
0.774961
0.771713
0.765559
0.756397
0.743819
0.727273
0.706019
0.679081
0.645265
0.603152
0.551025
0.48697
0.409194
0.31629
0.207782
0.0849962
-0.0481062
-0.184656
-0.315929
-0.433939
-0.534006
-0.61539
0.682562
0.711719
0.708228
0.701881
0.692481
0.679671
0.662982
0.641813
0.615385
0.582751
0.54286
0.494553
0.436614
0.367978
0.288025
0.19696
0.0961848
-0.0113969
-0.121379
-0.22858
-0.328281
-0.41736
-0.494755
0.623032
0.650964
0.647386
0.641029
0.631664
0.618991
0.602616
0.58207
0.556758
0.525973
0.488945
0.4449
0.393117
0.333041
0.26446
0.187788
0.104251
0.01594
-0.0742439
-0.16306
-0.247607
-0.325825
-0.396783
0.565808
0.592577
0.5891
0.582912
0.573818
0.561579
0.545885
0.526371
0.502605
0.474085
0.440276
0.400659
0.35482
0.302526
0.243798
0.179088
0.109375
0.0361596
-0.038599
-0.112783
-0.184517
-0.252413
-0.31573
0.510889
0.536463
0.533279
0.527403
0.51877
0.507195
0.492452
0.474269
0.452335
0.426315
0.395859
0.360637
0.320424
0.275153
0.224961
0.17028
0.11188
0.0508507
-0.0114635
-0.0736156
-0.134309
-0.19255
-0.247747
0.45836
0.482579
0.479831
0.474366
0.46632
0.455573
0.441968
0.425308
0.405386
0.38198
0.354875
0.323888
0.288907
0.249959
0.207222
0.161078
0.112133
0.0611936
0.00921937
-0.0427694
-0.0938292
-0.143182
-0.19031
0.408279
0.431019
0.428684
0.423657
0.416257
0.40643
0.394074
0.379053
0.361234
0.340474
0.316646
0.289667
0.259507
0.226237
0.190049
0.151267
0.110372
0.0679701
0.0247689
-0.0184893
-0.0610851
-0.10239
-0.14191
0.360495
0.38191
0.37975
0.375095
0.36835
0.359486
0.348433
0.335103
0.319407
0.301257
0.280589
0.257375
0.231636
0.203472
0.173065
0.14069
0.10673
0.0716532
0.0359875
0.000295885
-0.0348693
-0.0689833
-0.101585
0.314608
0.335133
0.332811
0.328446
0.322341
0.314456
0.304728
0.29309
0.279486
0.263868
0.246205
0.226505
0.204817
0.181251
0.155971
0.129215
0.101283
0.0725379
0.0433922
0.0142737
-0.0143866
-0.0421524
-0.0686064
0.270009
0.290185
0.28752
0.283422
0.277959
0.271056
0.262648
0.252677
0.241104
0.227904
0.213074
0.196634
0.178652
0.159231
0.138519
0.116715
0.0940563
0.0708253
0.0473423
0.0239361
0.00094479
-0.0212777
-0.0423736
0.22609
0.246321
0.243455
0.239688
0.234899
0.228989
0.221887
0.213537
0.203914
0.193011
0.180832
0.167412
0.152813
0.137134
0.120504
0.103084
0.0850614
0.0666552
0.0481057
0.0296628
0.0115797
-0.00586782
-0.0223878
0.182535
0.202979
0.200235
0.196922
0.19287
0.18797
0.182155
0.17538
0.167623
0.158889
0.149186
0.138551
0.127042
0.114746
0.10177
0.0882413
0.0743089
0.0601321
0.0458824
0.0317422
0.0178882
0.00451845
-0.00813261
0.139213
0.159902
0.157585
0.154858
0.151603
0.147732
0.143187
0.137936
0.131962
0.125271
0.117878
0.109812
0.101127
0.0918936
0.0821945
0.072128
0.0618077
0.0513464
0.0408596
0.0304654
0.0202685
0.0103856
0.000955715
0.0961064
0.117047
0.115326
0.11328
0.11087
0.10804
0.104748
0.100968
0.096691
0.0919248
0.0866853
0.080997
0.0748972
0.0684395
0.0616886
0.0547169
0.047603
0.040427
0.0332571
0.0261453
0.0191228
0.0121974
0.00540411
0.0532072
0.0743998
0.0733206
0.0720029
0.070466
0.0686792
0.0666134
0.0642563
0.0615992
0.0586489
0.0554216
0.0519365
0.0482137
0.0442874
0.0402045
0.0360112
0.0317552
0.0274836
0.0232289
0.0190023
0.0147712
0.0104178
0.00578241
0.010284
0.0318623
0.0314311
0.0308642
0.0302076
0.0294535
0.028587
0.0276007
0.0264915
0.0252642
0.0239267
0.0224892
0.0209587
0.0193523
0.0176932
0.015997
0.0142853
0.0125764
0.0108835
0.00919968
0.007483
0.00555626
0.00287432
976.115
978.351
968.104
937.605
991.906
992.192
979.543
952.166
1023.39
1020.19
996.947
954.493
1076.63
1065.12
968.536
350.948
180.53
837.59
187.82
50.6947
2.47741
4.03814
371.141
371.512
2.32272
2.58648
217.943
413.238
2.32644
2.38756
3.12609
364.517
2.24448
2.33176
2.5953
22.9841
1.99622
2.03877
2.18055
4.57448
1.71706
1.70097
1.6984
1.96998
1.64177
1.51006
1.24277
1.11643
1.35875
1.16498
0.915393
0.636659
1.30409
1.10898
0.913747
0.44701
1.37636
1.34186
1.3967
1.50504
1.44228
1.57571
1.87497
2.68582
1.27264
1.32059
1.36366
1.34453
1.01262
4.77033
1.99301
3.45454
8.97853
18.8389
13.2171
0.459885
-2.50176
-2.58335
-2.52471
-2.36182
-2.36922
-2.73398
-2.67327
-2.49038
-2.1986
-2.14815
-2.04618
-1.90113
-1.59998
-1.56583
-1.51468
-1.44511
-1.24684
-1.23599
-1.21843
-1.1925
-1.00102
-1.00923
-1.01338
-1.01319
-0.817194
-0.837602
-0.855017
-0.869569
-0.67208
-0.69873
-0.723172
-0.745426
-0.552824
-0.581652
-0.608772
-0.634144
-0.452505
-0.481022
-0.508101
-0.533672
-0.366897
-0.393587
-0.419073
-0.44325
-0.293101
-0.31708
-0.340169
-0.36215
-0.2293
-0.250087
-0.270348
-0.28974
-0.17457
-0.191977
-0.209138
-0.225724
-0.128381
-0.142521
-0.156479
-0.1701
-0.0902081
-0.101453
-0.11244
-0.123159
-0.059502
-0.0683274
-0.0768409
-0.0850403
-0.0357316
-0.0425624
-0.0490749
-0.0552401
-0.0183096
-0.0234831
-0.0283553
-0.0328684
-0.00667703
-0.0105602
-0.0141919
-0.0175014
-0.000307599
-0.00329404
-0.00614132
-0.00878885
0.00146229
-0.000977516
-0.00345084
-0.00590386
-0.000379229
-0.00251281
-0.00489305
-0.00749114
856.979
780.466
680.538
427.265
42.0817
42.2651
43.6757
84.2153
462.269
1357.32
1093.44
854.691
796.967
261.166
210.414
211.384
213.874
216.43
555.841
896.661
780.34
285.051
38.9479
40.7924
42.0512
43.5495
354.271
786.121
1742.93
2096.32
1491.73
349.839
213.18
212.26
211.197
214.772
214.498
587.654
880.229
135.295
34.669
37.251
38.7338
40.121
275.767
313.143
653.516
1002.16
1604.97
1293.39
219.602
208.316
212.062
211.753
213.082
213.856
679.565
35.8824
28.9112
33.1884
30.8404
32.0018
39.9686
365.647
124.593
133.981
236.875
1252.05
1138.31
202.763
204.461
209.369
213.722
212.911
212.93
1002.67
31.1985
25.2086
23.6754
11.5614
19.9346
123.557
375.381
121.211
127.686
256.034
1151.52
365.939
202.89
203.765
204.776
212.44
213.418
212.686
1196.1
23.6453
22.4018
13.312
9.17577
16.164
161.285
412.887
123.444
125.947
475.019
1128.32
202.307
202.705
202.547
204.128
407.493
213.605
212.365
988.687
378.894
24.2439
19.6586
19.8709
23.3998
58.6838
314.593
123.88
205.581
806.469
267.794
202.939
203.044
202.835
214.636
1093.04
278.527
215.12
224.802
480.296
34.1315
38.8134
25.4707
26.6441
72.3948
331.273
135.283
684.326
896.4
203.553
203.481
203.763
203.817
775.059
1176.8
786.024
212.444
213.318
405.649
56.2013
110.226
47.4013
154.681
345.142
223.701
518.571
301.426
473.203
203.796
204.148
204.473
204.6
629.902
1140.64
865.512
212.732
213.461
224.293
111.721
62.0633
236.179
204.033
150.789
289.131
309.082
276.269
608.025
439.232
204.639
204.93
205.361
265.457
954.769
462.846
241.494
214.064
31.5633
261.606
67.667
61.04
56.8163
70.4173
640.783
1367.76
1017.95
467.657
207.541
204.828
206.898
966.974
1798.8
1172.4
1608.23
1139.76
1836.88
1.09454
69.2626
267.886
145.7
73.3706
221.881
849.47
1290.77
1790.79
1969
1313.57
1286.17
1927.58
1998.72
1953.78
1798.77
2023.71
2066.49
2097.79
0.254889
0.299182
18.7729
86.319
369.4
471.224
78.3778
4.6475
10.4631
1606.79
2099.82
2112.18
2079.05
1834.15
1982.46
2065.25
2085.02
2145.93
2195.43
-0.0813097
0.012888
8.56508
268.361
430.656
24.7455
1.95062
1.45696
1.00093
3.85644
1186.22
2143.51
2056.93
1886.59
1939.81
1087.34
200.821
41.4374
1902.75
1.56071
109.067
160.593
8.2926
4.19731
2.25098
0.690882
-0.687928
-0.265458
0.783982
1.33667
103.467
1802.4
1081.16
3.56939
3.92772
4.25854
6.4713
865.7
7.33943
56.3508
-0.725551
1.34073
2.81927
3.63466
3.58791
0.682908
2.56539
1.12458
1.17039
0.537492
-0.838331
0.633292
3.53126
3.80592
4.19378
5.94298
940.703
1.20482
-0.551996
-0.723517
1.00266
2.66225
7.98896
5.71333
1.02541
0.620518
1.26995
5.41254
0.506927
0.383012
3.66044
4.93419
3.22619
4.89347
83.0481
168.401
8.23764
6.16016
2.33423
3.04451
4.62583
10.1321
13.199
12.8424
1.09178
0.713705
5.84112
0.174511
-0.324558
-0.221793
0.497771
6.14584
106.767
113.755
56.0635
4.02574
0.908143
0.987767
0.515149
0.521673
2.8091
4.88347
13.7169
1.56939
0.521136
5.67546
-0.039909
-0.443961
0.454344
3.4642
2.53597
124.128
-0.533021
8.79682
-2.01706
-1.19705
-0.553208
-0.10256
0.218716
3.70775
1.22789
14.0205
1.38376
0.775809
6.31863
0.202843
-0.414516
0.299603
-0.586531
-0.588577
79.5326
-0.814498
-0.827206
-2.1247
-1.31585
-0.727758
-0.341298
-0.00032605
0.244379
4.56274
3.25133
5.81706
1.15029
6.73648
-0.0468924
-0.128907
-0.782603
-0.786132
-0.667955
-0.754575
0.897274
-0.611339
-1.66085
-1.1986
-0.86505
-0.680034
-0.655649
3.65647
49.0289
39.7874
10.5233
2.02732
7.21725
0.301183
1.44813
-1.15122
-0.957493
-0.647925
-0.537344
1.5564
-0.0221325
-1.33444
-1.12765
-0.991654
-1.01136
-1.38598
-2.65043
49.9816
52.3149
54.7732
3.1193
1.73776
0.545529
0.444399
-1.17546
-0.986439
-0.529044
-0.267924
1.10012
0.0934344
-1.15024
-1.07598
-1.05467
-1.15677
-1.45192
-2.02826
-2.15057
-1.71629
54.7488
55.2566
1.10507
0.331325
1.6147
0.00872641
-0.902324
-0.287287
0.0334386
0.246255
0.391281
-1.01011
-1.00847
-1.04157
-1.14601
-1.32659
0.353868
-1.68573
-1.58895
-1.40044
55.1955
24.1796
0.460266
0.547215
-1.13429
-0.43815
0.146254
0.41236
0.538388
0.617969
-0.887608
-0.92249
-0.976433
-1.06608
-1.19139
0.557041
2.44137
-1.48261
-1.29218
-1.06693
37.6956
0.95345
0.622726
4.11287
0.302694
0.887144
0.923996
1.15926
0.772844
-0.773834
-0.824674
-0.883726
-0.958682
-1.05017
-1.17768
1.37392
-1.24619
-0.94603
7.88027
10.7151
0.934652
4.43255
5.71512
1.51349
1.62938
29.6167
62.8851
0.78655
-0.666569
-0.722454
-0.779703
-0.841029
-0.902066
-0.95485
-1.00208
0.248329
0.931521
-0.985677
11.7134
0.420555
-0.706542
0.554764
1.40544
1.68791
68.5151
65.3864
0.867619
-0.566378
-0.621605
-0.674844
-0.727116
-0.775429
-0.813917
-0.836317
1.15581
-0.345047
-0.88264
-0.805989
0.186364
-0.382194
0.24498
0.794344
5.26728
25.2558
6.6462
5.27758
-0.474159
-0.525805
-0.574502
-0.621261
-0.665937
-0.708333
-0.746842
1.19698
-0.84188
-0.84314
-0.719228
6.90476
9.09272
0.0788008
0.368165
6.92943
7.1138
-0.138599
3.32162
-0.390143
-0.436508
-0.480021
-0.52189
-0.563888
-0.61133
0.909891
0.0347167
-0.773522
-0.818192
8.36962
8.62795
8.79269
1.97082
0.0264375
49.9755
1.61211
-0.0883458
1.76494
-0.314249
-0.354207
-0.391361
-0.4267
-0.46173
-0.499138
1.26973
-0.612905
-0.668543
-0.762451
-0.616537
0.126861
8.65641
0.422831
-0.376118
59.9371
5.32139
-0.0416508
15.857
-0.24657
-0.279635
-0.309425
-0.33617
-0.360493
-0.346426
-0.393581
-0.398331
-0.549954
-0.723398
-0.98598
-0.630965
7.26051
-0.774465
-0.2544
4.37185
0.681506
-0.0275009
15.0664
-0.187307
-0.213714
-0.236255
-0.255281
-0.269831
-0.267753
-0.203207
-0.332126
-0.410702
1.13606
-0.7173
-0.901166
-0.864335
-0.446605
-0.0943711
54.9217
3.37334
-0.0379432
0.986609
-0.136816
-0.157193
-0.173354
-0.186965
-0.190035
-0.115459
-0.213807
-0.247857
-0.271919
1.70233
-0.357977
-0.456576
-0.355741
-0.153597
0.94983
55.9777
-0.106552
-0.065024
33.8542
-0.0954775
-0.110842
-0.121987
0.219222
-0.0162953
-0.146481
-0.169238
-0.197999
-0.184497
1.89369
-0.150765
-0.163984
-0.0471972
0.167473
0.141735
8.76213
-0.106264
-0.0816668
67.3712
-0.0629927
-0.0746015
0.193553
0.338028
-0.0753292
-0.103312
-0.138873
-0.194214
-0.104949
1.72885
-0.0431019
0.000775498
0.119528
0.524537
28.6186
-0.0927919
-0.0998764
-0.144768
23.7086
-0.0383503
-0.0460615
-0.0508945
-0.0487245
-0.0456665
-0.0614868
-0.119012
-0.216017
1.42568
0.627678
0.0485661
0.10186
0.167343
48.5197
28.9359
-0.0751508
-0.116169
-0.25186
7.26634
-0.0213749
-0.0260015
-0.0261892
-0.0192073
-0.0125156
-0.0211798
-0.0858986
-0.18084
2.52165
0.0367775
0.155262
0.191212
19.6153
31.9857
-0.132198
-0.105111
-0.114177
-0.199735
-0.175659
-0.0119358
-0.0155695
-0.0147955
-0.00711731
0.00624934
0.0186096
-0.0179072
2.36872
0.603636
0.113592
0.286921
11.2359
21.7259
-0.15772
-0.136692
-0.126411
-0.129439
-0.158742
0.592026
-0.009059
-0.0134855
-0.0146067
-0.00928882
0.00692421
0.0410304
0.0898365
3.58936
0.0751108
0.206427
8.39693
2.68812
-0.083177
-0.130476
-0.138125
-0.140609
-0.149669
-0.176745
0.653433
-0.0112121
-0.0180065
-0.0236487
-0.024998
-0.0155823
0.0198603
0.109251
3.43535
-0.128381
3.49871
-0.222591
-0.103316
-0.124455
-0.138261
-0.144136
-0.149147
-0.157788
-0.175072
-0.195637
502.372
501.206
504.77
516.942
535.56
552.534
570.246
590.842
613.768
638.231
663.611
689.43
715.377
741.259
766.771
790.177
804.625
816.178
842.17
838.693
843.317
886.928
932.934
501.509
500.336
503.23
515.183
534.886
552.032
569.667
590.268
613.32
637.924
663.42
689.319
715.294
741.108
766.486
790.2
807.467
810.248
839.746
846.496
815.876
856.334
925.187
499.745
498.737
499.679
510.222
533.167
551.128
568.618
589.201
612.352
637.145
662.908
689.026
715.132
740.893
765.869
789.056
807.753
816.038
845.207
862.997
788.114
826.954
911.036
497.697
496.75
492.977
497.839
529.212
550.26
567.327
587.729
610.943
635.984
662.198
688.617
714.981
740.81
765.646
788.676
808.293
823.292
847.343
865.018
800.207
856.63
904.477
495.843
494.422
484.673
482.387
524.88
550.057
565.77
585.886
609.136
634.509
661.155
688.147
714.904
740.925
765.786
788.904
809.462
827.625
848.774
865.381
856.243
876.615
908.626
495.573
492.173
480.044
477.733
523.644
549.066
563.517
583.537
606.899
632.727
659.99
687.676
714.962
741.287
766.304
789.646
810.971
830.766
851.353
869.592
878.237
894.686
916.401
498.621
491.016
479.194
481.046
516.453
543.825
560.061
580.516
604.132
630.574
658.692
687.256
715.209
741.933
767.19
790.8
812.714
833.501
854.288
873.9
889.615
907.627
926.994
503.398
489.717
459.145
350.734
508.929
535.87
555.328
576.756
600.71
628
657.263
686.941
715.701
742.898
768.438
792.303
814.609
836.014
857.289
878.301
898.113
918.919
940.467
507.298
428.151
399.658
401.457
423.077
808.892
1046.65
1132.66
1079.34
731.08
749.98
768.18
425.167
325.964
348.603
422.121
922.094
1540.12
1375.37
452.13
377.173
362.556
362.422
379.228
746.73
1002.72
1123.01
1173.83
598.961
566.799
334.244
303.417
313.398
331.825
371.168
703.544
1392.42
1358.45
364.607
362.423
362.339
362.279
456.424
680.425
898.804
1109.5
1384.88
667.498
245.701
228.374
224.886
223.46
222.081
219.202
261.22
1056.68
1426.25
368.161
362.371
362.32
482.354
504.093
587.643
732.071
1031.03
1469.15
384.604
231.032
228.375
225.39
223.374
222.234
218.13
219.734
523.386
1407.75
366.282
362.287
402.832
546.175
489.607
478.061
444.755
801.917
1343.66
245.988
230.345
227.516
224.018
223.583
223.237
217.446
216.136
281.559
1287.29
361.043
363.438
628.448
541.809
467.119
319.667
45.6925
409.224
1148.43
234.038
229.248
227.484
223.759
221.463
224.804
217.637
216.333
234.427
1108.37
362.548
664.539
626.268
534.335
426.915
44.8369
44.1436
50.3144
988.754
238.011
228.807
228.408
224.792
220.601
227.822
216.196
216.68
217.089
954.788
554.67
725.726
623.849
520.104
46.4808
43.6755
44.2297
94.0194
940.588
458.099
232.899
228.72
280.962
308.276
211.238
213.875
215.64
216.729
862.487
232.874
154.198
133.339
181.815
309.565
430.884
513.518
569.918
594.881
624.195
655.356
686.741
716.688
744.579
770.53
794.664
817.181
839.028
860.864
883.647
907.501
933.182
963.913
2.34146
2.25657
1.94853
1.9451
2.05228
2.0714
2.12374
2.19056
62.2678
232.779
496.042
673.83
719.835
749.063
775.198
799.22
821.744
843.333
865.518
890.396
919.948
953.72
985.648
2.24866
2.12379
1.8513
1.8344
2.01365
2.07827
2.10144
2.1439
2.13761
2.17917
2.14609
17.0215
143.796
403.016
639.692
784.017
826.498
844.919
866.105
890.562
925.848
972.561
1016.39
2.08697
2.06459
1.9682
1.95637
2.03891
2.06953
2.08473
2.10186
2.14633
2.12558
2.13007
2.13101
2.1433
2.10816
2.14117
2.18278
45.6657
133.575
295.637
473.658
746.769
976.121
1058.53
2.05705
2.03964
2.02063
2.02187
2.0453
2.05938
2.0702
2.08056
2.09077
2.10056
2.10551
2.10895
2.10947
2.10538
2.09346
2.04774
2.03528
2.07523
2.15792
2.25771
2.44467
317.182
312.071
2.02683
2.02012
2.01815
2.0217
2.03183
2.04172
2.05102
2.06012
2.069
2.07849
2.08581
2.09162
2.09113
2.08768
2.08417
2.07667
2.07832
2.10304
2.15121
2.20278
2.27824
2.35345
2.46076
1.99243
1.9904
1.99381
1.99977
2.0082
2.01746
2.027
2.03673
2.04657
2.05676
2.06622
2.07376
2.07881
2.08119
2.08158
2.08054
2.08214
2.09274
2.11496
2.15446
2.35459
2.29233
2.33305
1.9575
1.95748
1.96209
1.96921
1.97813
1.98822
1.99906
2.01046
2.02236
2.03475
2.04705
2.05828
2.06753
2.07424
2.07781
2.0776
2.07386
2.06828
2.06193
2.34275
2.77446
2.85725
2.27184
1.92064
1.92101
1.92596
1.93366
1.94341
1.95474
1.9673
1.98091
1.99549
2.01096
2.02693
2.04255
2.05659
2.0678
2.0746
2.07442
2.06444
2.04322
2.01108
1.95728
2.10898
2.69614
2.14883
1.88019
1.88075
1.88585
1.89401
1.9046
1.91723
1.93162
1.94764
1.96518
1.98419
2.00445
2.02522
2.04503
2.06192
2.07332
2.07482
2.06018
2.02524
1.9673
1.87898
1.87162
2.17752
1.94395
1.83515
1.83631
1.84169
1.85031
1.86168
1.87552
1.89164
1.90997
1.93048
1.95318
1.97805
2.00458
2.0312
2.05534
2.07342
2.07928
2.06235
2.01097
1.91435
1.81446
1.89831
1.6722
1.72312
1.78499
1.7875
1.79342
1.80248
1.81445
1.82923
1.84676
1.86707
1.89023
1.91642
1.94583
1.97828
2.01237
2.04515
2.07217
2.08565
2.0706
2.00506
1.96706
2.10185
1.625
1.66202
1.72269
1.73024
1.73455
1.74102
1.75036
1.76265
1.77797
1.7964
1.81807
1.84322
1.87224
1.90553
1.94327
1.98458
2.02657
2.06403
2.08807
2.07921
2.00904
2.3599
2.20974
1.64113
1.63885
1.47875
1.67252
1.67794
1.68461
1.69387
1.70607
1.72138
1.73998
1.76214
1.78828
1.81893
1.85468
1.8961
1.943
1.99288
2.04011
2.07493
2.07526
2.00083
1.99214
1.7461
1.61718
1.5561
1.41016
1.61305
1.61799
1.62428
1.63302
1.64459
1.6592
1.6771
1.69865
1.72438
1.75489
1.79091
1.83331
1.88244
1.93634
1.98914
2.02913
2.03175
1.95864
1.80935
1.66251
1.559
1.49805
1.41287
1.5509
1.55465
1.56015
1.56794
1.57833
1.59151
1.60773
1.62736
1.65094
1.67906
1.71243
1.75198
1.79823
1.84974
1.90094
1.93877
1.93652
1.85842
1.71447
1.57409
1.44576
1.38556
1.3968
1.48494
1.48789
1.49244
1.49897
1.50769
1.51873
1.53228
1.54863
1.56819
1.59134
1.61855
1.65043
1.68704
1.72682
1.76473
1.78797
1.76972
1.66989
1.53713
1.45026
1.2536
1.1359
1.24197
1.41583
1.4182
1.42169
1.42668
1.4333
1.44158
1.45158
1.46341
1.47717
1.49283
1.51027
1.52915
1.54802
1.56333
1.56742
1.54259
1.44764
1.1774
4.65552
25.9208
0.924508
2.49642
5.63351
1.3446
1.34631
1.3486
1.35182
1.35601
1.36107
1.36684
1.37318
1.37976
1.38593
1.39062
1.39187
1.38544
1.36271
1.30528
1.16763
0.820315
0.332698
23.3474
23.9245
-0.873316
19.9842
18.7998
1.2719
1.27292
1.27396
1.27528
1.27685
1.2784
1.27957
1.27988
1.27855
1.2742
1.26465
1.24608
1.21093
1.14417
1.01294
0.733414
0.0486864
-1.68784
18.4067
21.8705
-1.97121
-2.2563
-2.39854
1.19838
1.19878
1.19857
1.19798
1.19689
1.19489
1.19142
1.18571
1.17651
1.16184
1.13858
1.10151
1.04094
0.938762
0.758851
0.422497
-0.248049
-1.67782
-3.69601
-3.63502
-2.55101
-2.35353
-2.17766
1.12475
1.12462
1.12322
1.12082
1.11721
1.11186
1.10406
1.09279
1.07652
1.05286
1.0182
0.966908
0.889151
0.768469
0.577014
0.26726
-0.232348
-0.997252
-1.93865
-2.35155
-2.20525
-2.17114
-2.21069
1.05164
1.05107
1.04863
1.04462
1.03876
1.03047
1.01891
1.00295
0.980915
0.95033
0.907533
0.847262
0.761268
0.636956
0.456353
0.195479
-0.170516
-0.643206
-1.14084
-1.46745
-1.57393
-1.60725
-1.61498
0.979673
0.978748
0.975454
0.970087
0.962365
0.951646
0.937084
0.917502
0.891266
0.856029
0.808498
0.744229
0.657035
0.538338
0.377674
0.164535
-0.106657
-0.424488
-0.744394
-0.994723
-1.14263
-1.21889
-1.24916
0.909378
0.908166
0.904215
0.897795
0.888618
0.876065
0.859318
0.83725
0.808371
0.770652
0.721323
0.65689
0.573062
0.464541
0.325718
0.152702
-0.0535294
-0.282273
-0.509292
-0.70298
-0.844478
-0.937091
-0.990899
0.84111
0.839705
0.835295
0.828145
0.817949
0.804153
0.786023
0.762542
0.732413
0.693989
0.645117
0.583169
0.505279
0.408435
0.289965
0.148926
-0.0120907
-0.185166
-0.356649
-0.510674
-0.636228
-0.731145
-0.79885
0.775058
0.773645
0.768971
0.761371
0.750567
0.736083
0.71729
0.69333
0.663115
0.625346
0.578461
0.520605
0.449897
0.364695
0.263957
0.147995
0.0193693
-0.116475
-0.251504
-0.376982
-0.486346
-0.576961
-0.649673
0.71193
0.710205
0.705379
0.697572
0.686529
0.671845
0.653002
0.629313
0.599907
0.563783
0.519836
0.466862
0.403686
0.329426
0.243828
0.147642
0.0429996
-0.0664052
-0.175648
-0.279612
-0.374263
-0.457513
-0.52926
0.651322
0.649351
0.64451
0.636726
0.625765
0.611293
0.592898
0.570052
0.542098
0.508286
0.467847
0.420017
0.364141
0.299805
0.227079
0.146767
0.0605252
-0.0291198
-0.119019
-0.206022
-0.287594
-0.36223
-0.429542
0.59274
0.59094
0.586283
0.578729
0.568109
0.554185
0.536632
0.515049
0.488973
0.457875
0.421224
0.378537
0.329486
0.273951
0.212143
0.144776
0.0730893
-0.0011608
-0.0758882
-0.149058
-0.219006
-0.284668
-0.345604
0.536215
0.534925
0.530598
0.523433
0.513364
0.500235
0.483809
0.463792
0.439858
0.411664
0.378862
0.341164
0.298417
0.250653
0.198143
0.141484
0.0816147
0.0197638
-0.0426469
-0.104215
-0.163782
-0.22055
-0.274122
0.482108
0.48133
0.477354
0.47067
0.461294
0.44914
0.434034
0.415768
0.394131
0.368902
0.339877
0.306899
0.269921
0.229046
0.184545
0.136909
0.0868549
0.0352728
-0.0168348
-0.0684695
-0.118758
-0.167045
-0.212953
0.430742
0.43013
0.426432
0.420256
0.411653
0.400578
0.386906
0.370502
0.351231
0.328949
0.303555
0.274984
0.243253
0.208491
0.170957
0.131049
0.089317
0.0464238
0.00310136
-0.0399129
-0.0819327
-0.122396
-0.160896
0.382148
0.381208
0.377669
0.371984
0.364187
0.354239
0.342058
0.327557
0.310644
0.291241
0.2693
0.244818
0.217849
0.188534
0.157103
0.123882
0.0892992
0.05386
0.0181092
-0.0173856
-0.0520878
-0.085499
-0.1172
0.335946
0.334328
0.330832
0.325613
0.318625
0.309827
0.299153
0.286537
0.271931
0.255292
0.236608
0.215904
0.193259
0.168812
0.142761
0.115374
0.0869865
0.0579885
0.0288031
-0.000141178
-0.0284076
-0.0555694
-0.0812263
0.291428
0.289081
0.285626
0.280866
0.274692
0.267044
0.257861
0.247093
0.234709
0.220692
0.205052
0.18783
0.169113
0.149024
0.12774
0.105477
0.0824926
0.0590945
0.0356089
0.0123658
-0.010285
-0.0319884
-0.0524018
0.247782
0.244997
0.241682
0.237429
0.23209