/*--------------------------------*- C++ -*----------------------------------*\
| =========                 |                                                 |
| \\      /  F ield         | OpenFOAM: The Open Source CFD Toolbox           |
|  \\    /   O peration     | Version:  v1912                                 |
|   \\  /    A nd           | Website:  www.openfoam.com                      |
|    \\/     M anipulation  |                                                 |
\*---------------------------------------------------------------------------*/
FoamFile
{
    version     2.0;
    format      ascii;
    class       surfaceScalarField;
    location    "0.65";
    object      phi;
}
// * * * * * * * * * * * * * * * * * * * * * * * * * * * * * * * * * * * * * //

dimensions      [0 3 -1 0 0 0 0];
oriented        oriented;


internalField   nonuniform List<scalar> 
17936
(
-1.04708e-06
2.73371e-06
-1.68663e-06
2.28358e-06
-2.9227e-06
6.39124e-07
2.9449e-06
-2.73726e-06
-2.07642e-07
2.44293e-06
-1.93601e-06
-5.06921e-07
1.07889e-06
9.85011e-08
-1.17739e-06
-1.3388e-06
2.35046e-06
-1.01166e-06
-3.0049e-06
3.2953e-06
-2.90398e-07
-3.25362e-06
2.92373e-06
3.29888e-07
-2.40608e-06
1.79806e-06
6.08015e-07
-1.17503e-06
5.81653e-07
5.93378e-07
-3.3557e-08
-4.67094e-07
5.00651e-07
9.30145e-07
-1.35906e-06
4.28914e-07
1.76014e-06
-2.14859e-06
3.88447e-07
2.54654e-06
-2.98712e-06
4.40576e-07
3.5227e-06
-4.22696e-06
7.04262e-07
5.18589e-06
-6.36518e-06
1.17928e-06
7.39425e-06
-7.95288e-06
5.58628e-07
8.98969e-06
-1.1009e-05
2.01927e-06
1.19465e-05
-9.71909e-06
-2.22739e-06
5.46487e-06
-2.2664e-06
-3.19847e-06
3.00338e-06
-9.0381e-06
6.03472e-06
1.59677e-05
-1.71541e-05
1.18647e-06
1.24617e-05
-4.89519e-06
-7.56648e-06
-4.40482e-06
5.90911e-06
-1.50429e-06
2.55224e-06
-2.72961e-06
-8.71742e-07
1.04911e-06
2.60516e-06
-2.52693e-06
4.20756e-07
-4.98983e-07
2.53972e-06
-2.3435e-06
9.34619e-07
-1.13083e-06
1.65091e-06
-4.20538e-07
2.37082e-06
-3.60119e-06
-9.77764e-07
2.12391e-06
2.08763e-06
-3.23378e-06
-2.87955e-06
3.26112e-06
6.56841e-07
-1.03841e-06
-3.34437e-06
3.2182e-06
-4.15675e-07
5.41841e-07
-2.95144e-06
2.58643e-06
-9.88711e-07
1.35372e-06
-2.14783e-06
1.65862e-06
-1.14122e-06
1.63043e-06
-1.14641e-06
6.38712e-07
-1.05747e-06
1.56517e-06
-1.59029e-07
-2.77476e-07
-9.01007e-07
1.33751e-06
6.72634e-07
-1.02113e-06
-7.68002e-07
1.1165e-06
1.32993e-06
-1.60141e-06
-7.89362e-07
1.06085e-06
1.84382e-06
-2.06101e-06
-1.23417e-06
1.45136e-06
2.28234e-06
-2.68026e-06
-2.4489e-06
2.84682e-06
3.66388e-06
-5.56403e-06
-2.92123e-06
4.82138e-06
7.79681e-06
-9.4134e-06
-3.31117e-06
4.92775e-06
1.03393e-05
-1.08235e-05
3.71997e-06
-3.23578e-06
1.08971e-05
-1.18168e-05
4.11434e-06
-3.19464e-06
1.46653e-05
-1.71076e-05
-1.17038e-05
1.41461e-05
1.67618e-05
-1.44171e-05
9.06785e-07
-3.25148e-06
1.07067e-05
-5.55373e-06
1.44402e-05
-1.95931e-05
-7.22373e-06
8.33791e-06
-1.11418e-06
2.0596e-06
-2.22568e-06
-1.20099e-06
1.36707e-06
2.4606e-06
-3.18766e-06
2.65117e-07
4.61939e-07
4.12589e-06
-4.63393e-06
9.77874e-07
-4.69838e-07
4.13041e-06
-2.48402e-06
4.9915e-06
-6.63789e-06
4.22283e-07
1.17352e-06
4.5378e-06
-6.13361e-06
-2.0616e-06
2.47329e-06
1.44228e-06
-1.85397e-06
-2.5794e-06
2.48137e-06
-6.62767e-07
7.60791e-07
-2.2412e-06
1.90538e-06
-1.72328e-06
2.05909e-06
-1.51064e-06
1.08624e-06
-2.09429e-06
2.5187e-06
-6.55781e-07
2.37102e-07
-2.02755e-06
2.44623e-06
1.56753e-07
-5.19916e-07
-1.73795e-06
2.10111e-06
8.47151e-07
-1.14328e-06
-1.43916e-06
1.73529e-06
1.4061e-06
-1.64176e-06
-1.31932e-06
1.55498e-06
1.84528e-06
-2.00818e-06
-1.61896e-06
1.78186e-06
2.08772e-06
-2.00055e-06
-2.78058e-06
2.69341e-06
1.66143e-06
-1.09658e-06
-5.19187e-06
4.62702e-06
5.54451e-07
-5.44718e-07
-6.04096e-06
6.03123e-06
1.37299e-06
-3.47546e-06
1.13862e-06
9.63858e-07
6.7687e-06
-9.1216e-06
1.36687e-06
9.86028e-07
9.22086e-06
-8.12921e-06
-1.43087e-05
1.32171e-05
6.34836e-06
-4.67336e-06
5.40742e-06
-7.08242e-06
3.18686e-06
-2.17052e-06
2.25465e-05
-2.35629e-05
-9.22872e-06
9.85273e-06
-6.24009e-07
1.54445e-06
-2.03743e-06
-1.65832e-06
2.1513e-06
3.02728e-06
-4.38553e-06
-1.66866e-06
3.02692e-06
5.58318e-06
-6.04163e-06
-1.93898e-07
6.52346e-07
5.46407e-06
-3.83387e-06
8.42897e-06
-1.00592e-05
1.62453e-06
2.9992e-07
8.0338e-06
-9.95825e-06
-1.32229e-06
1.65648e-06
2.24508e-06
-2.57927e-06
-1.69251e-06
1.5989e-06
-8.46557e-07
9.40161e-07
-1.41892e-06
1.17178e-06
-2.34972e-06
2.59686e-06
-8.7812e-07
5.58259e-07
-2.89187e-06
3.21174e-06
-2.30483e-07
-8.88688e-08
-2.81774e-06
3.13709e-06
3.98918e-07
-6.8719e-07
-2.42641e-06
2.71468e-06
9.50926e-07
-1.18962e-06
-2.00191e-06
2.2406e-06
1.4026e-06
-1.58494e-06
-1.76277e-06
1.94511e-06
1.7326e-06
-1.83121e-06
-1.91271e-06
2.01132e-06
1.86215e-06
-1.79648e-06
-2.64396e-06
2.5783e-06
1.58659e-06
-1.13173e-06
-3.9873e-06
3.53244e-06
3.10549e-07
7.16573e-07
-5.06857e-06
4.04145e-06
-1.27498e-06
9.87328e-07
-2.10431e-06
2.39197e-06
-6.15396e-08
-1.26278e-06
-3.31463e-06
4.63895e-06
6.58887e-07
1.89077e-06
-1.13135e-05
8.7638e-06
-3.52047e-06
3.52145e-06
8.25762e-06
-8.2586e-06
-2.79001e-06
1.15855e-06
2.30226e-05
-2.13911e-05
-1.01429e-05
9.98156e-06
1.61325e-07
7.56907e-07
-1.28063e-06
-2.76825e-06
3.29197e-06
1.8524e-06
-2.17187e-06
-4.04554e-06
4.365e-06
1.99458e-06
-1.26258e-06
-6.08351e-07
-1.23649e-07
6.02946e-08
7.05777e-07
1.1296e-05
-1.2062e-05
-8.34963e-07
9.44885e-07
1.13013e-05
-1.14112e-05
-1.1685e-06
1.1848e-06
2.80083e-06
-2.81713e-06
-1.04618e-06
8.83652e-07
-1.06239e-06
1.22492e-06
-7.20904e-07
5.40675e-07
-2.80634e-06
2.98657e-06
-3.34301e-07
1.07152e-07
-3.48172e-06
3.70887e-06
1.28837e-07
-3.65723e-07
-3.41349e-06
3.65038e-06
5.97642e-07
-8.2456e-07
-2.96833e-06
3.19525e-06
1.03808e-06
-1.23545e-06
-2.45618e-06
2.65356e-06
1.41067e-06
-1.55545e-06
-2.10688e-06
2.25166e-06
1.65958e-06
-1.71328e-06
-2.08461e-06
2.13831e-06
1.70135e-06
-1.59564e-06
-2.48751e-06
2.3818e-06
1.38077e-06
-1.04548e-06
-3.17339e-06
2.8381e-06
6.0384e-07
-1.26098e-07
-3.34042e-06
2.86268e-06
-2.75577e-07
5.30253e-07
-2.20743e-06
1.95275e-06
-9.29238e-07
2.03652e-06
-4.43037e-06
3.32308e-06
-3.62728e-06
5.54602e-06
-6.52162e-06
4.60288e-06
-6.734e-06
6.36888e-06
7.93388e-06
-7.56876e-06
-4.82173e-06
2.44739e-06
1.92491e-05
-1.68748e-05
-9.20309e-06
7.7731e-06
1.42999e-06
-8.99404e-07
1.03079e-06
-3.52815e-06
3.39676e-06
-1.74276e-06
3.12251e-06
-3.88053e-06
2.50078e-06
-4.9117e-06
7.00523e-06
1.56094e-06
-3.65447e-06
-8.6593e-06
8.57016e-06
1.25221e-05
-1.2433e-05
-6.46937e-06
3.61776e-06
9.97324e-06
-7.12163e-06
-1.71011e-06
9.7519e-07
2.50122e-06
-1.7663e-06
-6.97727e-07
5.07846e-07
-1.41859e-06
1.60847e-06
-3.44538e-07
1.91765e-07
-3.14849e-06
3.30126e-06
-2.97109e-08
-1.47564e-07
-3.90363e-06
4.0809e-06
3.34066e-07
-5.23722e-07
-3.85794e-06
4.0476e-06
7.16273e-07
-9.12176e-07
-3.39808e-06
3.59399e-06
1.10284e-06
-1.28147e-06
-2.83827e-06
3.0169e-06
1.43619e-06
-1.56126e-06
-2.3838e-06
2.50887e-06
1.64371e-06
-1.67084e-06
-2.1777e-06
2.20482e-06
1.63202e-06
-1.5126e-06
-2.27257e-06
2.15315e-06
1.30748e-06
-1.00939e-06
-2.51887e-06
2.22079e-06
6.36391e-07
-2.33746e-07
-2.4401e-06
2.03746e-06
-1.19415e-07
4.07576e-07
-1.71102e-06
1.42285e-06
-7.76635e-07
1.59189e-06
-2.18871e-06
1.37346e-06
-3.15025e-06
4.98386e-06
-2.59135e-06
7.57745e-07
-5.99099e-06
5.581e-06
7.09196e-06
-6.68196e-06
-4.10296e-06
2.17245e-06
1.45654e-05
-1.26349e-05
-5.75722e-06
3.34951e-06
2.40772e-06
-3.4973e-06
4.67412e-06
-2.8351e-06
1.65828e-06
-6.49541e-06
9.27209e-06
-5.50769e-07
-2.22592e-06
-1.27813e-05
1.52299e-05
6.52338e-06
-8.97195e-06
-1.47321e-05
1.17971e-05
1.11888e-05
-8.2539e-06
-8.01815e-06
4.54268e-06
3.40246e-06
7.30004e-08
-2.09071e-06
9.05355e-07
6.80284e-07
5.05068e-07
-4.89462e-07
3.50585e-07
-1.75785e-06
1.89673e-06
-2.64546e-07
1.59023e-07
-3.43897e-06
3.5445e-06
-1.28667e-08
-1.61503e-07
-4.25415e-06
4.42852e-06
3.45606e-07
-5.26532e-07
-4.23205e-06
4.41298e-06
7.17864e-07
-9.16518e-07
-3.79037e-06
3.98902e-06
1.12167e-06
-1.31157e-06
-3.19839e-06
3.38828e-06
1.4755e-06
-1.60577e-06
-2.63099e-06
2.76125e-06
1.68597e-06
-1.70428e-06
-2.22299e-06
2.2413e-06
1.6529e-06
-1.52582e-06
-2.03023e-06
1.90315e-06
1.32499e-06
-1.05213e-06
-1.93852e-06
1.66566e-06
7.2333e-07
-3.63169e-07
-1.66013e-06
1.29997e-06
-3.46125e-09
3.79657e-07
-1.07557e-06
6.99371e-07
-8.30481e-07
1.42629e-06
-7.38323e-07
1.42515e-07
-2.2356e-06
3.12225e-06
5.61548e-07
-1.44821e-06
-3.65349e-06
3.48875e-06
6.43671e-06
-6.27197e-06
-2.62797e-06
1.52336e-06
1.11696e-05
-1.0065e-05
-9.48814e-07
-2.43724e-06
3.38605e-06
-5.47857e-06
9.12108e-06
4.1499e-07
-4.0575e-06
-1.28009e-05
1.41502e-05
5.73524e-06
-7.08455e-06
-1.2223e-05
7.13777e-06
8.28721e-06
-3.20196e-06
-3.28082e-06
2.28976e-06
4.52309e-06
-3.53203e-06
-2.24429e-06
2.67615e-06
-1.93471e-06
1.50285e-06
-2.76993e-06
2.27097e-06
-1.43161e-06
1.93057e-06
-1.58042e-06
1.02465e-06
-2.17812e-06
2.73389e-06
-6.70284e-07
3.8484e-07
-3.65838e-06
3.94383e-06
-9.86428e-08
-1.72578e-07
-4.61063e-06
4.88185e-06
4.1074e-07
-6.17283e-07
-4.59325e-06
4.79979e-06
8.09033e-07
-1.01384e-06
-4.18565e-06
4.39047e-06
1.21151e-06
-1.3838e-06
-3.57648e-06
3.74877e-06
1.53191e-06
-1.64494e-06
-2.89473e-06
3.00776e-06
1.71584e-06
-1.73374e-06
-2.26597e-06
2.28387e-06
1.69315e-06
-1.58821e-06
-1.78587e-06
1.68092e-06
1.40493e-06
-1.15611e-06
-1.40007e-06
1.15125e-06
8.54145e-07
-5.15423e-07
-9.50425e-07
6.11703e-07
1.56724e-07
2.27203e-07
-3.15328e-07
-6.85984e-08
-6.56812e-07
1.16606e-06
4.18006e-07
-9.27253e-07
-1.75949e-06
2.31658e-06
2.12169e-06
-2.67879e-06
-2.64141e-06
2.55909e-06
6.14634e-06
-6.06401e-06
-2.09215e-06
1.52911e-06
9.26156e-06
-8.69852e-06
-7.27277e-06
2.05911e-05
-1.33183e-05
1.85866e-05
-2.46745e-05
6.08793e-06
2.67698e-05
-2.68824e-05
1.12624e-07
2.53088e-05
-2.32689e-05
-2.03989e-06
2.23948e-05
-2.25145e-05
1.19664e-07
2.32407e-05
-2.01156e-05
-3.1251e-06
5.37077e-06
7.9351e-06
-1.33059e-05
-1.3572e-05
1.10652e-05
2.50681e-06
-2.82165e-06
-5.30201e-06
8.12366e-06
-3.35966e-06
2.46182e-05
-2.12585e-05
-3.22417e-05
2.55334e-05
6.70836e-06
-3.55011e-06
-3.2027e-05
3.55771e-05
6.25103e-05
-7.65394e-05
1.40291e-05
7.78128e-05
-7.60319e-05
-1.78089e-06
7.49195e-05
-7.44848e-05
-4.34721e-07
7.4269e-05
-7.34111e-05
-8.57922e-07
7.04671e-05
-6.3549e-05
-6.91813e-06
4.94896e-05
-2.61555e-05
-2.33341e-05
1.05381e-06
9.24524e-06
-1.0299e-05
-3.4085e-05
4.086e-05
-6.77493e-06
1.96786e-05
-1.95895e-05
-7.76546e-06
7.67629e-06
2.09908e-05
-3.39265e-05
-1.00394e-06
1.39396e-05
5.70746e-05
-6.34103e-05
4.6053e-08
6.28957e-06
5.57259e-05
-4.08865e-05
3.63242e-06
-1.84718e-05
2.00308e-05
1.3726e-05
1.58033e-05
-4.95601e-05
-2.47535e-05
2.82764e-05
2.25849e-05
-2.61078e-05
-2.81632e-05
2.54986e-05
-3.82862e-06
6.49328e-06
-2.18774e-05
1.85021e-05
-1.29768e-05
1.63521e-05
-1.96511e-05
8.20962e-06
3.22875e-05
-2.0846e-05
2.25742e-05
-6.02831e-05
-3.53141e-05
7.3023e-05
8.61592e-05
-9.57616e-05
-6.44715e-05
7.40739e-05
9.72037e-05
-9.63168e-05
-1.16841e-05
1.07972e-05
9.54568e-05
-9.371e-05
2.12492e-06
-3.87171e-06
9.24912e-05
-9.21059e-05
-2.98345e-07
-8.70182e-08
9.166e-05
-9.03383e-05
1.82363e-06
-3.1453e-06
8.71632e-05
-8.09107e-05
1.33952e-05
-1.96477e-05
7.01706e-05
-5.14216e-05
4.40727e-05
-6.28216e-05
2.68352e-05
-2.61466e-06
2.94025e-05
-5.3623e-05
-3.90342e-05
3.74341e-05
1.60011e-06
2.10464e-05
-2.75448e-05
-1.37124e-05
2.02108e-05
2.88075e-05
-2.08624e-05
-1.78996e-05
9.95457e-06
1.36756e-06
1.56764e-05
3.23088e-06
-2.02748e-05
-3.05074e-05
3.61829e-05
3.78912e-05
-4.35667e-05
-3.94814e-05
3.77514e-05
5.14686e-05
-4.97386e-05
-3.68039e-05
3.65863e-05
2.6007e-05
-2.57894e-05
-3.49409e-05
2.99736e-05
-1.03973e-05
1.53646e-05
-2.21004e-05
1.26877e-05
-2.15839e-05
3.09966e-05
5.9757e-06
-4.80898e-05
-1.12659e-05
5.338e-05
8.73742e-05
-0.000102095
-0.000101379
0.0001161
9.85596e-05
-8.76086e-05
-7.27863e-05
6.18353e-05
7.50213e-05
-7.25381e-05
-1.41835e-05
1.17002e-05
7.95068e-05
-8.74004e-05
3.95958e-06
3.93394e-06
9.07695e-05
-9.15808e-05
1.34077e-06
-5.29497e-07
9.31384e-05
-9.69126e-05
5.35788e-06
-1.5837e-06
9.78943e-05
-9.2419e-05
2.76439e-05
-3.31191e-05
8.00161e-05
-5.98901e-05
8.09117e-05
-0.000101038
4.00296e-05
-1.94477e-05
7.55217e-05
-9.61036e-05
-3.54973e-05
2.14298e-05
1.40676e-05
-7.11072e-06
9.75364e-06
-2.76991e-05
2.50562e-05
-9.47394e-06
1.85251e-05
1.53538e-06
-1.05865e-05
-2.83183e-05
3.63469e-05
3.2197e-05
-4.02256e-05
-3.84216e-05
4.03611e-05
4.64295e-05
-4.8369e-05
-4.16836e-05
4.1807e-05
4.89349e-05
-4.90583e-05
-4.21291e-05
4.2648e-05
2.59661e-05
-2.6485e-05
-4.10791e-05
3.42704e-05
-2.13466e-05
2.81554e-05
-2.17986e-05
4.30545e-06
-4.49032e-05
6.23963e-05
2.47355e-05
-6.1553e-05
-9.50437e-05
0.000131861
7.81454e-05
-6.27666e-05
-0.000116977
0.000101598
3.84085e-05
-2.54314e-05
-3.07439e-05
1.77668e-05
2.31082e-05
-1.85159e-05
-8.16159e-06
3.56925e-06
1.03617e-05
-9.66478e-06
-2.51906e-05
2.44937e-05
2.23922e-05
-2.96734e-05
-2.46119e-06
9.74239e-06
3.53891e-05
-4.658e-05
-6.9396e-06
1.81305e-05
5.82202e-05
-6.73019e-05
2.96374e-05
-2.05557e-05
6.73932e-05
-5.93162e-05
0.000119748
-0.000127825
4.00631e-05
-2.21527e-05
0.000115512
-0.000133423
-1.42627e-05
1.26423e-05
1.62039e-06
1.19803e-05
-5.15038e-06
-2.04828e-05
1.36529e-05
-2.03076e-05
3.11585e-05
1.81135e-05
-2.89645e-05
-3.5618e-05
3.80046e-05
4.26817e-05
-4.50684e-05
-3.99757e-05
4.13772e-05
5.0168e-05
-5.15695e-05
-4.22259e-05
4.30586e-05
4.95714e-05
-5.04041e-05
-4.50245e-05
4.66347e-05
2.73655e-05
-2.89757e-05
-4.46891e-05
3.66919e-05
-3.55339e-05
4.35311e-05
-2.27809e-05
2.50026e-06
-8.20125e-05
0.000102293
2.12822e-05
-3.28635e-05
-0.000157214
0.000168795
3.09009e-05
-3.15537e-05
-8.69717e-05
8.76245e-05
4.05165e-05
-4.47722e-05
-2.1962e-05
2.62177e-05
4.23529e-05
-4.16385e-05
-3.02432e-07
-4.11963e-07
4.30329e-05
-3.18781e-05
-4.85819e-06
-6.29664e-06
-3.90483e-06
3.51958e-05
-6.21681e-06
-2.50741e-05
-4.7325e-05
4.18005e-05
-3.17406e-05
3.72652e-05
-2.70047e-05
1.0937e-05
9.3547e-06
6.71307e-06
1.46085e-05
-3.37333e-05
0.000124857
-0.000105733
3.07338e-05
-1.90038e-05
0.00014863
-0.00016036
-1.22045e-05
1.2145e-05
5.95117e-08
-2.48207e-05
3.72224e-05
-3.11405e-06
-9.28761e-06
-3.30803e-05
3.37707e-05
3.65437e-05
-3.72341e-05
-3.66919e-05
3.87519e-05
4.73611e-05
-4.9421e-05
-3.96562e-05
4.0158e-05
5.24029e-05
-5.29048e-05
-4.10551e-05
4.25667e-05
5.17667e-05
-5.32783e-05
-4.00734e-05
2.94809e-05
3.01924e-05
-1.95999e-05
-2.60797e-05
2.21813e-05
-5.25835e-05
5.64818e-05
-1.90687e-05
3.86126e-06
-0.000121316
0.000136524
1.32148e-05
-1.98389e-05
-0.00017724
0.000183865
2.69625e-05
-3.80074e-05
-9.6379e-05
0.000107424
3.94798e-05
-3.16102e-05
-2.50482e-05
1.71785e-05
2.40186e-05
-1.96039e-05
-1.79548e-06
-2.61915e-06
7.69176e-06
5.31783e-06
9.64743e-06
-2.2657e-05
-1.38516e-05
3.65829e-05
7.00541e-05
-9.27854e-05
-6.53271e-05
7.42603e-05
-3.09009e-05
2.19676e-05
-7.18024e-05
6.4334e-05
-1.83883e-05
2.58566e-05
-5.50266e-05
5.44013e-06
6.28105e-05
-1.32241e-05
1.72877e-05
-1.3558e-05
0.000168335
-0.000172064
-1.60938e-05
2.22263e-05
-6.13252e-06
-1.98992e-05
2.59562e-05
1.22987e-05
-1.83557e-05
-3.14548e-05
3.50932e-05
4.06326e-05
-4.4271e-05
-3.66755e-05
3.71318e-05
5.05279e-05
-5.09842e-05
-3.77834e-05
3.91098e-05
5.36314e-05
-5.49578e-05
-3.99888e-05
3.62532e-05
5.32065e-05
-4.9471e-05
-3.39108e-06
-2.77709e-05
-1.47689e-05
4.59309e-05
2.63647e-05
-2.58564e-06
-3.46896e-05
1.09105e-05
-3.29551e-06
4.40793e-06
-0.000144978
0.000143865
3.10127e-06
2.51143e-06
-0.000184607
0.000178994
-9.27708e-06
7.63311e-06
-0.000120139
0.000121783
-6.42548e-06
1.1822e-05
-4.9601e-06
-4.36449e-07
-1.59071e-05
3.74398e-05
1.54572e-05
-3.699e-05
-5.80344e-05
8.12172e-05
4.04201e-05
-6.36029e-05
-9.89194e-05
0.00010005
9.92003e-05
-0.00010033
-9.55355e-05
7.98633e-05
-2.36239e-05
3.92961e-05
-6.76234e-05
5.69522e-05
-3.35146e-05
4.41859e-05
-4.90604e-05
3.93304e-05
-1.42418e-05
2.39717e-05
3.01079e-06
-7.5519e-06
0.000171305
-0.000166764
-1.65125e-05
-8.35236e-07
1.73477e-05
-2.49895e-05
2.94492e-05
2.94468e-05
-3.39064e-05
-3.21212e-05
3.33633e-05
4.62616e-05
-4.75037e-05
-3.41453e-05
3.55007e-05
5.15659e-05
-5.29213e-05
-3.81424e-05
3.99931e-05
5.67403e-05
-5.8591e-05
-3.45346e-05
1.37899e-05
3.38058e-05
-1.3061e-05
1.80752e-05
-3.28989e-05
-6.49357e-05
7.97594e-05
4.25683e-05
-3.08005e-05
9.05557e-06
-2.08234e-05
8.42312e-06
-7.33769e-07
-0.000138461
0.000130771
-3.5357e-06
8.79296e-06
-0.000173697
0.00016844
-1.80349e-05
2.99914e-05
-0.000111918
9.99618e-05
-4.82822e-05
5.7981e-05
8.877e-06
-1.85758e-05
-7.04633e-05
8.44946e-05
4.72596e-05
-6.12909e-05
-0.000101897
0.00011758
8.64799e-05
-0.000102163
-0.000116277
0.000100448
9.42129e-05
-7.83845e-05
-7.71078e-05
6.79973e-05
-5.32954e-05
6.24058e-05
-5.93671e-05
4.58265e-05
-5.75955e-05
7.11362e-05
-3.66693e-05
3.07712e-05
-2.54654e-05
3.13635e-05
-2.80298e-06
-2.65776e-06
0.000160667
-0.000155206
6.67363e-06
3.14302e-05
-3.81038e-05
-2.99252e-06
-5.71944e-06
6.69083e-06
2.02112e-06
2.06454e-05
-3.269e-05
2.31951e-06
9.72508e-06
3.45813e-05
-3.15552e-05
7.53919e-07
-3.78005e-06
2.79579e-05
-2.05546e-05
5.52175e-06
-1.2925e-05
1.13051e-05
-4.77055e-06
-2.2104e-07
-6.31352e-06
7.5076e-07
1.97264e-06
-2.01694e-06
-7.06465e-07
-3.89337e-06
5.25601e-06
-3.27963e-06
1.91699e-06
-6.05863e-06
6.01508e-06
-4.50045e-06
4.544e-06
-5.05545e-06
3.75084e-06
-5.44595e-06
6.75056e-06
-2.43636e-06
1.31692e-06
-5.16797e-06
6.28741e-06
-1.05847e-07
-1.21802e-06
-4.68245e-06
6.00631e-06
2.46587e-06
-3.44051e-06
-3.9225e-06
4.89714e-06
4.16263e-06
-4.58108e-06
-3.07545e-06
3.4939e-06
4.6714e-06
-4.46533e-06
-2.25318e-06
2.04711e-06
4.10196e-06
-3.65153e-06
-1.5686e-06
1.11817e-06
3.10705e-06
-2.54469e-06
-9.25163e-07
3.62808e-07
1.99008e-06
-1.40027e-06
-2.95564e-07
-2.94245e-07
7.46288e-07
-4.45721e-08
4.44724e-07
-1.14644e-06
-7.01433e-07
1.50504e-06
1.38508e-06
-2.18869e-06
-2.34762e-06
3.13025e-06
3.14596e-06
-3.92859e-06
-3.75402e-06
4.18743e-06
6.09197e-06
-6.52539e-06
-4.64337e-06
5.52744e-06
8.103e-06
-8.98707e-06
-4.44322e-05
4.50383e-05
-6.06056e-07
2.41112e-05
-3.03607e-05
2.98189e-06
3.26758e-06
4.65216e-05
-6.71411e-05
-2.01391e-05
4.07586e-05
7.52138e-05
-7.45894e-05
-9.47113e-06
8.84673e-06
7.18551e-05
-7.28228e-05
2.49986e-05
-2.4031e-05
7.43947e-05
-7.93306e-05
2.54707e-05
-2.05347e-05
8.14421e-05
-8.1139e-05
1.01638e-05
-1.04669e-05
7.75623e-05
-6.83608e-05
3.34773e-06
-1.25492e-05
5.72601e-05
-4.12211e-05
-6.33981e-07
-1.54051e-05
2.6879e-05
-1.81478e-05
-4.91981e-06
-3.81131e-06
1.21946e-05
-7.68972e-06
-5.66242e-06
1.15756e-06
4.3215e-06
-2.48653e-06
-7.06191e-06
5.22694e-06
1.60495e-06
-1.22045e-06
-6.34967e-06
5.96517e-06
1.44767e-06
-2.18516e-06
-4.47285e-06
5.21034e-06
3.22564e-06
-4.19533e-06
-2.43941e-06
3.40911e-06
4.99321e-06
-5.33696e-06
-9.47968e-07
1.29172e-06
5.16247e-06
-4.79942e-06
4.71796e-07
-8.34842e-07
4.29456e-06
-3.50459e-06
1.12278e-06
-1.91274e-06
2.43259e-06
-1.3671e-06
1.87213e-06
-2.93763e-06
5.25716e-07
1.1592e-07
2.75856e-06
-3.40019e-06
-6.44177e-07
1.03774e-06
4.44335e-06
-4.83691e-06
-1.28994e-06
1.57412e-06
6.93184e-06
-7.21602e-06
-2.23224e-06
3.61767e-06
9.93369e-06
-1.13191e-05
-4.19677e-05
3.9596e-05
2.37169e-06
5.6034e-06
-1.32265e-05
-1.7118e-05
2.47411e-05
1.41278e-05
-1.34275e-05
-4.88179e-05
4.81177e-05
1.28473e-05
-1.42381e-05
-7.05363e-06
8.44448e-06
1.63253e-05
-1.66878e-05
2.72164e-05
-2.68539e-05
1.6952e-05
-1.82452e-05
1.72697e-05
-1.59764e-05
1.93925e-05
-2.06616e-05
6.2003e-06
-4.93119e-06
2.34269e-05
-2.83693e-05
5.31303e-06
-3.70552e-07
3.46732e-05
-4.25563e-05
9.34477e-06
-1.4617e-06
5.05199e-05
-5.91212e-05
1.05652e-05
-1.96389e-06
6.50807e-05
-6.97002e-05
1.42745e-05
-9.65493e-06
6.78288e-05
-6.0161e-05
3.68946e-06
-1.13573e-05
4.75563e-05
-3.49547e-05
-2.03561e-06
-1.0566e-05
2.58277e-05
-1.90973e-05
-3.45387e-06
-3.2765e-06
1.403e-05
-1.01372e-05
-3.10811e-06
-7.84682e-07
7.27783e-06
-4.91154e-06
-2.13708e-06
-2.29203e-07
3.19634e-06
-2.79021e-06
4.58322e-07
-8.64453e-07
3.42766e-06
-4.01763e-06
2.16431e-06
-1.57434e-06
3.99916e-06
-3.89043e-06
3.83033e-06
-3.93906e-06
3.62632e-06
-3.17244e-06
4.08955e-06
-4.54343e-06
2.72761e-06
-2.6925e-06
5.35268e-06
-5.38779e-06
3.21922e-06
-3.98157e-06
7.26126e-06
-6.49891e-06
4.43624e-06
-4.06512e-06
1.22704e-05
-1.26415e-05
-3.6982e-05
3.405e-05
2.93197e-06
-4.55029e-06
6.90641e-07
-2.99089e-05
3.37686e-05
-3.10458e-06
1.36278e-05
-3.98264e-05
2.93032e-05
-2.12414e-05
2.114e-05
-9.97834e-06
1.00797e-05
-1.49352e-05
5.2771e-06
2.05051e-05
-1.0847e-05
3.59751e-06
-9.32499e-06
1.22145e-05
-6.48707e-06
1.24252e-05
-1.37718e-05
2.84546e-06
-1.49885e-06
1.45435e-05
-1.54133e-05
-1.87959e-06
2.74939e-06
1.82316e-05
-2.31044e-05
-1.39914e-06
6.27195e-06
2.73766e-05
-2.85016e-05
-1.86182e-06
2.98675e-06
2.74343e-05
-2.77198e-05
3.49788e-07
-6.43253e-08
3.11059e-05
-3.72754e-05
8.60399e-07
5.30909e-06
4.596e-05
-5.64616e-05
8.09745e-06
2.40415e-06
6.90702e-05
-8.11223e-05
1.33272e-05
-1.27508e-06
9.2116e-05
-9.90712e-05
1.3303e-05
-6.34782e-06
0.000101337
-9.65944e-05
4.70688e-06
-9.44899e-06
8.43548e-05
-6.85053e-05
7.11411e-06
-2.29635e-05
5.14782e-05
-4.24805e-05
4.38317e-06
-1.33809e-05
3.4e-05
-2.66255e-05
5.37952e-06
-1.27541e-05
2.29931e-05
-1.92613e-05
5.14937e-06
-8.88115e-06
1.3275e-05
-9.85063e-06
4.26567e-06
-7.69e-06
1.06523e-05
-1.31181e-05
4.09167e-06
-1.62583e-06
1.6482e-05
-2.10893e-05
1.08216e-05
-6.21442e-06
-3.17983e-05
3.05437e-05
1.25459e-06
-8.50977e-06
1.20908e-05
-3.38541e-05
3.0273e-05
-1.32508e-05
1.44347e-05
-2.37533e-05
2.25695e-05
-1.52333e-05
1.31417e-05
-1.02296e-05
1.23212e-05
-7.93176e-06
1.65614e-06
1.88218e-06
4.39344e-06
3.66275e-06
-7.80276e-06
1.35833e-06
2.78168e-06
1.10325e-05
-1.35666e-05
-1.05175e-06
3.58578e-06
1.56535e-05
-1.72719e-05
-2.83182e-06
4.45015e-06
1.79617e-05
-1.7831e-05
-6.43065e-06
6.29998e-06
1.81221e-05
-1.91962e-05
-7.5102e-06
8.58435e-06
2.06961e-05
-2.29219e-05
-2.98049e-06
5.20629e-06
2.58482e-05
-2.85905e-05
-2.40172e-06
5.14401e-06
3.04089e-05
-3.04967e-05
-3.23935e-06
3.32718e-06
2.80189e-05
-2.50085e-05
-7.62115e-06
4.6107e-06
2.36433e-05
-2.30729e-05
-2.61226e-06
2.0418e-06
2.37253e-05
-2.78479e-05
1.39443e-07
3.98315e-06
3.6071e-05
-4.48678e-05
1.30164e-05
-4.21959e-06
5.10251e-05
-5.45926e-05
1.20812e-05
-8.51366e-06
5.90255e-05
-6.22496e-05
1.40672e-05
-1.08431e-05
6.47689e-05
-6.83676e-05
2.28258e-05
-1.9227e-05
6.96833e-05
-7.09291e-05
2.23117e-05
-2.10658e-05
7.10144e-05
-6.27974e-05
6.42116e-06
-1.46381e-05
5.06784e-05
-4.76863e-05
6.45199e-06
-9.44406e-06
-3.00469e-05
3.00588e-05
-1.18847e-08
-2.92933e-06
5.88041e-06
-2.60608e-05
2.31097e-05
-7.75047e-06
7.69323e-06
-2.25727e-05
2.26299e-05
-6.29243e-06
4.20256e-06
-1.50561e-05
1.71459e-05
-1.55676e-06
-1.5394e-06
-8.5604e-06
1.16566e-05
4.69345e-06
-7.65831e-06
-6.21644e-06
9.1813e-06
1.03408e-05
-1.27134e-05
-6.11908e-06
8.49167e-06
1.48313e-05
-1.68148e-05
-6.3377e-06
8.32126e-06
1.86415e-05
-2.00362e-05
-7.27662e-06
8.67135e-06
2.08069e-05
-2.13128e-05
-8.87264e-06
9.37855e-06
2.21649e-05
-2.34257e-05
-7.1222e-06
8.38298e-06
2.47232e-05
-2.59404e-05
-6.10463e-06
7.32182e-06
2.72514e-05
-2.84111e-05
-4.53998e-06
5.69965e-06
2.88122e-05
-2.86613e-05
-4.68979e-06
4.53893e-06
2.89438e-05
-2.99364e-05
-1.36431e-06
2.35692e-06
3.06502e-05
-3.04037e-05
-6.95297e-07
4.48806e-07
3.00289e-05
-3.00133e-05
3.6705e-06
-3.68606e-06
3.03346e-05
-3.06575e-05
7.7251e-06
-7.40222e-06
3.06586e-05
-2.9954e-05
9.56476e-06
-1.02693e-05
2.89518e-05
-2.88243e-05
1.32153e-05
-1.33428e-05
3.04664e-05
-3.16032e-05
1.74589e-05
-1.63221e-05
2.96322e-05
-3.02945e-05
1.24863e-05
-1.1824e-05
3.65114e-05
-4.03008e-05
3.28809e-06
5.01338e-07
-3.04996e-05
3.13181e-05
-8.18492e-07
-1.21402e-08
8.22723e-07
-2.14862e-05
2.06756e-05
-1.15516e-06
9.68052e-07
-2.26929e-05
2.288e-05
-3.28756e-07
-8.34295e-07
-1.85891e-05
1.97521e-05
2.5045e-06
-4.54898e-06
-1.41259e-05
1.61703e-05
6.76027e-06
-8.99971e-06
-1.17456e-05
1.3985e-05
1.11871e-05
-1.32814e-05
-1.07275e-05
1.28219e-05
1.52717e-05
-1.71741e-05
-1.02886e-05
1.2191e-05
1.89762e-05
-2.05961e-05
-1.02262e-05
1.18461e-05
2.19717e-05
-2.31804e-05
-1.02819e-05
1.14907e-05
2.43475e-05
-2.54876e-05
-9.46097e-06
1.06011e-05
2.6558e-05
-2.75835e-05
-8.33441e-06
9.35993e-06
2.86121e-05
-2.95915e-05
-6.71656e-06
7.69596e-06
3.03997e-05
-3.10385e-05
-5.0327e-06
5.67145e-06
3.16203e-05
-3.21521e-05
-2.54468e-06
3.0765e-06
3.2508e-05
-3.26137e-05
4.00503e-08
6.57004e-08
3.24993e-05
-3.2316e-05
3.19662e-06
-3.37997e-06
3.21638e-05
-3.21219e-05
6.33494e-06
-6.37678e-06
3.23362e-05
-3.31793e-05
9.35424e-06
-8.51105e-06
3.51499e-05
-3.81128e-05
1.23118e-05
-9.34892e-06
4.02458e-05
-3.88622e-05
1.72197e-05
-1.86033e-05
3.38811e-05
-2.78487e-05
1.68167e-05
-2.28492e-05
2.38361e-05
-2.46995e-05
-3.39879e-06
4.26222e-06
-3.24919e-05
3.39818e-05
-1.48988e-06
1.59519e-06
-1.60533e-06
-2.03614e-05
2.03716e-05
1.79214e-06
-2.24807e-06
-2.32083e-05
2.36642e-05
2.99628e-06
-4.02875e-06
-2.08188e-05
2.18513e-05
5.36677e-06
-6.93531e-06
-1.79261e-05
1.94947e-05
8.66279e-06
-1.04786e-05
-1.5979e-05
1.77948e-05
1.23301e-05
-1.41805e-05
-1.47823e-05
1.66327e-05
1.60055e-05
-1.77891e-05
-1.4026e-05
1.58096e-05
1.95163e-05
-2.11701e-05
-1.34855e-05
1.51393e-05
2.27389e-05
-2.42357e-05
-1.28784e-05
1.43752e-05
2.56799e-05
-2.70743e-05
-1.18667e-05
1.3261e-05
2.84109e-05
-2.96839e-05
-1.04993e-05
1.17723e-05
3.08864e-05
-3.19985e-05
-8.70659e-06
9.81872e-06
3.29971e-05
-3.38768e-05
-6.41119e-06
7.29095e-06
3.46368e-05
-3.52516e-05
-3.51552e-06
4.13035e-06
3.56839e-05
-3.58949e-05
-2.20043e-07
4.3104e-07
3.58662e-05
-3.56152e-05
3.31721e-06
-3.56823e-06
3.51162e-05
-3.4557e-05
6.4322e-06
-6.99131e-06
3.4489e-05
-3.5455e-05
7.4077e-06
-6.44172e-06
3.69845e-05
-3.73249e-05
6.54816e-06
-6.2077e-06
3.51215e-05
-3.16131e-05
2.20461e-05
-2.55545e-05
2.89946e-05
-2.66924e-05
2.788e-05
-3.01822e-05
2.43609e-05
-2.34492e-05
-3.2148e-06
2.30308e-06
-3.57512e-05
3.77664e-05
-2.01522e-06
2.72479e-06
-3.13199e-06
-2.06139e-05
2.10211e-05
3.57655e-06
-4.22282e-06
-2.42253e-05
2.48716e-05
5.07358e-06
-6.09923e-06
-2.28732e-05
2.38988e-05
7.31661e-06
-8.69177e-06
-2.0944e-05
2.23191e-05
1.01979e-05
-1.17977e-05
-1.94834e-05
2.10833e-05
1.34614e-05
-1.51641e-05
-1.83978e-05
2.01005e-05
1.68866e-05
-1.86137e-05
-1.75577e-05
1.92848e-05
2.03322e-05
-2.2032e-05
-1.68124e-05
1.85122e-05
2.37071e-05
-2.536e-05
-1.59534e-05
1.76063e-05
2.69938e-05
-2.86055e-05
-1.47686e-05
1.63803e-05
3.01868e-05
-3.1725e-05
-1.31769e-05
1.47152e-05
3.32064e-05
-3.46154e-05
-1.10642e-05
1.24731e-05
3.59345e-05
-3.7145e-05
-8.31226e-06
9.52268e-06
3.82204e-05
-3.91241e-05
-4.85093e-06
5.75464e-06
3.98043e-05
-4.01839e-05
-7.28868e-07
1.10846e-06
4.01447e-05
-3.96287e-05
3.9792e-06
-4.49518e-06
3.86818e-05
-3.74615e-05
7.88894e-06
-9.10925e-06
3.58387e-05
-3.30994e-05
7.02436e-06
-9.76368e-06
2.85302e-05
-2.27677e-05
9.53534e-06
-1.52978e-05
1.84529e-05
-1.79045e-05
2.74712e-05
-2.80196e-05
2.02805e-05
-2.5305e-05
2.95412e-05
-2.45167e-05
3.25822e-05
-4.37261e-05
-6.47805e-06
1.76219e-05
-3.99947e-05
4.23951e-05
-2.40038e-06
3.51925e-06
-4.12349e-06
-2.15448e-05
2.2149e-05
4.70416e-06
-5.46824e-06
-2.5585e-05
2.63491e-05
6.38919e-06
-7.43974e-06
-2.49358e-05
2.59864e-05
8.62213e-06
-9.92553e-06
-2.36489e-05
2.49523e-05
1.13368e-05
-1.28378e-05
-2.26231e-05
2.41241e-05
1.44125e-05
-1.60465e-05
-2.17609e-05
2.33948e-05
1.77274e-05
-1.94454e-05
-2.10021e-05
2.272e-05
2.11922e-05
-2.29618e-05
-2.02444e-05
2.2014e-05
2.475e-05
-2.65551e-05
-1.93341e-05
2.11391e-05
2.83757e-05
-3.02086e-05
-1.80993e-05
1.99322e-05
3.20489e-05
-3.38883e-05
-1.63976e-05
1.8237e-05
3.57155e-05
-3.75141e-05
-1.40672e-05
1.58658e-05
3.92622e-05
-4.09325e-05
-1.09462e-05
1.26164e-05
4.24893e-05
-4.38839e-05
-6.87375e-06
8.26837e-06
4.5043e-05
-4.58674e-05
-1.65645e-06
2.48078e-06
4.62663e-05
-4.61717e-05
4.89618e-06
-4.9908e-06
4.54494e-05
-4.37411e-05
1.06331e-05
-1.23414e-05
4.05656e-05
-3.58352e-05
1.40742e-05
-1.88045e-05
3.04245e-05
-2.61136e-05
2.115e-05
-2.54609e-05
2.47835e-05
-2.75474e-05
2.76644e-05
-2.49004e-05
3.55108e-05
-4.98654e-05
1.47218e-05
-3.67191e-07
6.85181e-05
-7.99167e-05
-3.27143e-05
4.41128e-05
-4.49164e-05
4.74907e-05
-2.5743e-06
3.99586e-06
-4.7024e-06
-2.28112e-05
2.35177e-05
5.35612e-06
-6.19239e-06
-2.71525e-05
2.79887e-05
7.16705e-06
-8.24825e-06
-2.70516e-05
2.81328e-05
9.43334e-06
-1.07189e-05
-2.62425e-05
2.7528e-05
1.20983e-05
-1.35636e-05
-2.56019e-05
2.70671e-05
1.51069e-05
-1.67217e-05
-2.50147e-05
2.66295e-05
1.84022e-05
-2.01438e-05
-2.44469e-05
2.61885e-05
2.19431e-05
-2.37985e-05
-2.38252e-05
2.56806e-05
2.57092e-05
-2.76755e-05
-2.3024e-05
2.49904e-05
2.96983e-05
-3.17772e-05
-2.18859e-05
2.39648e-05
3.39118e-05
-3.60978e-05
-2.02452e-05
2.24312e-05
3.83284e-05
-4.05918e-05
-1.78874e-05
2.01508e-05
4.28701e-05
-4.51398e-05
-1.45683e-05
1.6838e-05
4.73663e-05
-4.95015e-05
-9.99935e-06
1.21345e-05
5.14817e-05
-5.323e-05
-3.71101e-06
5.45924e-06
5.46367e-05
-5.55127e-05
4.65323e-06
-3.77724e-06
5.5545e-05
-5.44819e-05
1.39585e-05
-1.50217e-05
5.251e-05
-5.04933e-05
2.27496e-05
-2.47663e-05
4.97148e-05
-5.1416e-05
2.71971e-05
-2.54959e-05
5.66107e-05
-6.60557e-05
1.86289e-05
-9.18384e-06
7.87258e-05
-9.04384e-05
-1.57723e-05
2.74849e-05
9.45611e-05
-8.80054e-05
-4.66443e-05
4.00887e-05
-5.00403e-05
5.24741e-05
-2.4338e-06
4.03294e-06
-4.82563e-06
-2.42657e-05
2.50584e-05
5.5744e-06
-6.48155e-06
-2.88576e-05
2.97648e-05
7.51072e-06
-8.62876e-06
-2.92315e-05
3.03495e-05
9.83419e-06
-1.11257e-05
-2.88146e-05
3.01061e-05
1.25019e-05
-1.39603e-05
-2.85269e-05
2.99854e-05
1.54993e-05
-1.71179e-05
-2.82448e-05
2.98635e-05
1.88157e-05
-2.05935e-05
-2.7948e-05
2.97258e-05
2.24529e-05
-2.43968e-05
-2.7581e-05
2.9525e-05
2.64294e-05
-2.85558e-05
-2.70381e-05
2.91645e-05
3.07816e-05
-3.31126e-05
-2.61706e-05
2.85016e-05
3.55547e-05
-3.81119e-05
-2.48016e-05
2.73587e-05
4.07862e-05
-4.35769e-05
-2.26719e-05
2.54626e-05
4.64781e-05
-4.94794e-05
-1.94594e-05
2.24607e-05
5.25606e-05
-5.56928e-05
-1.47392e-05
1.78713e-05
5.88348e-05
-6.19155e-05
-7.8257e-06