/*--------------------------------*- C++ -*----------------------------------*\
| =========                 |                                                 |
| \\      /  F ield         | OpenFOAM: The Open Source CFD Toolbox           |
|  \\    /   O peration     | Version:  v1912                                 |
|   \\  /    A nd           | Website:  www.openfoam.com                      |
|    \\/     M anipulation  |                                                 |
\*---------------------------------------------------------------------------*/
FoamFile
{
    version     2.0;
    format      ascii;
    class       volVectorField;
    location    "0.65";
    object      U;
}
// * * * * * * * * * * * * * * * * * * * * * * * * * * * * * * * * * * * * * //

dimensions      [0 1 -1 0 0 0 0];


internalField   nonuniform List<vector> 
9072
(
(-0.022643 0.0196744 0)
(-0.0651063 0.00452698 0)
(-0.0657232 -0.000918059 0)
(-0.0512164 -0.00261787 0)
(-0.0118241 -0.00610977 0)
(0.0430174 -0.00510798 0)
(0.073542 -0.00115742 0)
(0.0720166 0.00259711 0)
(0.0483667 0.00407789 0)
(0.0199208 0.00351906 0)
(-0.00514026 0.00269019 0)
(-0.0262258 0.00230215 0)
(-0.0445613 0.00222481 0)
(-0.0627311 0.00285428 0)
(-0.0870736 0.00504059 0)
(-0.130428 0.00665698 0)
(-0.175341 -0.00345428 0)
(-0.229245 0.0154098 0)
(-0.258855 -0.0132429 0)
(-0.083606 -0.0318212 0)
(-0.0970608 0.026192 0)
(-0.423591 0.0179838 0)
(-0.195669 -0.0386662 0)
(-0.024066 0.0557754 0)
(-0.0632058 0.0102646 0)
(-0.0585808 -0.00562625 0)
(-0.0575048 -0.0117558 0)
(-0.025114 -0.0318975 0)
(0.0365749 -0.0285984 0)
(0.0717658 -0.00915167 0)
(0.0760041 0.00506715 0)
(0.0638238 0.0125315 0)
(0.0437664 0.0149764 0)
(0.0203666 0.0142513 0)
(-0.00155961 0.0121638 0)
(-0.0194879 0.0102186 0)
(-0.0335673 0.00998968 0)
(-0.044562 0.0146522 0)
(-0.0545414 0.0299357 0)
(-0.098452 0.0444458 0)
(-0.207398 0.0414849 0)
(-0.23761 -0.046003 0)
(-0.253044 -0.0380768 0)
(-0.379843 0.145982 0)
(-0.355352 -0.0247215 0)
(-0.181492 -0.195123 0)
(-0.0178047 0.0841999 0)
(-0.0508278 0.0135974 0)
(-0.0636525 -0.000459544 0)
(-0.104542 -0.00776098 0)
(-0.0790128 -0.0609165 0)
(0.0120944 -0.0567882 0)
(0.0535715 -0.017906 0)
(0.0588631 0.00769 0)
(0.0478847 0.0204953 0)
(0.0298341 0.024998 0)
(0.0101781 0.0242439 0)
(-0.0078278 0.0207918 0)
(-0.0228172 0.0171776 0)
(-0.034879 0.0155477 0)
(-0.0441448 0.0183881 0)
(-0.047679 0.0294883 0)
(-0.0317923 0.0541943 0)
(-0.00922763 0.070022 0)
(-0.044672 0.00305641 0)
(-0.187659 -0.00350526 0)
(-0.219774 0.15172 0)
(-0.112715 -0.0691373 0)
(-0.0539092 -0.253274 0)
(-0.0095396 0.103394 0)
(-0.0385077 0.0199207 0)
(-0.0861073 0.0253919 0)
(-0.140769 0.00489199 0)
(-0.106726 -0.102406 0)
(-0.0118299 -0.0977809 0)
(0.0361276 -0.0261872 0)
(0.0382658 0.00962515 0)
(0.0300148 0.0268051 0)
(0.016588 0.0330717 0)
(0.0016094 0.0322554 0)
(-0.0124303 0.0278213 0)
(-0.0244995 0.0229379 0)
(-0.0342252 0.0200377 0)
(-0.0408573 0.0212149 0)
(-0.0422132 0.0282296 0)
(-0.0325771 0.0402074 0)
(0.0042459 0.0483606 0)
(0.0302467 0.0254942 0)
(-0.0109514 0.044736 0)
(0.0076426 0.10809 0)
(0.0916575 -0.0859702 0)
(0.0481752 -0.239829 0)
(0.00308799 0.110126 0)
(-0.0209263 0.0327624 0)
(-0.0498949 0.0467684 0)
(-0.044213 0.00415677 0)
(0.0152559 -0.128103 0)
(0.0157167 -0.126285 0)
(0.0280724 -0.0307284 0)
(0.022163 0.0123232 0)
(0.0146447 0.0313754 0)
(0.00522871 0.0389284 0)
(-0.00556411 0.0382189 0)
(-0.0161874 0.0333139 0)
(-0.0259446 0.0275949 0)
(-0.033952 0.0235326 0)
(-0.038788 0.0228096 0)
(-0.0380753 0.0263062 0)
(-0.0282626 0.0324628 0)
(-0.00833093 0.0331546 0)
(0.00949304 0.0219646 0)
(0.0313111 0.0435127 0)
(0.0986374 0.0610693 0)
(0.15849 -0.0811064 0)
(0.0866528 -0.194208 0)
(0.0194997 0.0938256 0)
(0.0220125 0.037697 0)
(0.0510481 0.0368885 0)
(0.129419 -0.0250037 0)
(0.216915 -0.134558 0)
(0.10933 -0.0940996 0)
(0.0262665 -0.0238547 0)
(0.013816 0.0164443 0)
(0.00616007 0.0348918 0)
(-0.00116876 0.0431603 0)
(-0.00965753 0.0427119 0)
(-0.0184587 0.0377394 0)
(-0.0271901 0.0315812 0)
(-0.0343593 0.026395 0)
(-0.038072 0.0236616 0)
(-0.0363084 0.0239012 0)
(-0.0268936 0.0255596 0)
(-0.00997284 0.0241193 0)
(0.00610204 0.017003 0)
(0.0244582 0.0186984 0)
(0.092308 0.0168287 0)
(0.139124 -0.0744742 0)
(0.0727841 -0.146078 0)
(0.029638 0.0503791 0)
(0.0939039 0.027376 0)
(0.169998 -0.00587069 0)
(0.332845 -0.0846826 0)
(0.315402 -0.110874 0)
(0.136388 -0.0162962 0)
(0.028005 -0.00105195 0)
(0.00908152 0.0195194 0)
(0.00496148 0.0377811 0)
(-0.00147264 0.0469356 0)
(-0.00983833 0.0467681 0)
(-0.0185035 0.0420051 0)
(-0.027747 0.0354789 0)
(-0.0353534 0.0290149 0)
(-0.0390138 0.0240607 0)
(-0.0366742 0.0212451 0)
(-0.0274813 0.0194581 0)
(-0.0126101 0.0159368 0)
(0.00420905 0.00957931 0)
(0.0254031 0.00487588 0)
(0.0603734 -0.0116583 0)
(0.08493 -0.0693285 0)
(0.0465552 -0.113785 0)
(0.0324585 -0.00954901 0)
(0.160864 -0.0137589 0)
(0.321325 -0.0837824 0)
(0.232682 -0.0780022 0)
(0.0542537 -0.0296642 0)
(0.0549018 0.025109 0)
(0.0599819 0.0182269 0)
(0.0281164 0.0245978 0)
(0.0116697 0.0403408 0)
(-0.000800816 0.0514072 0)
(-0.0117936 0.0513834 0)
(-0.0206302 0.0465975 0)
(-0.0296836 0.0393733 0)
(-0.0363822 0.0316662 0)
(-0.039676 0.0246083 0)
(-0.0378079 0.0187741 0)
(-0.0296258 0.0137182 0)
(-0.0158882 0.00837502 0)
(0.000640907 0.00133551 0)
(0.0205225 -0.00734817 0)
(0.0465571 -0.0261053 0)
(0.0617157 -0.0658236 0)
(0.041769 -0.0963524 0)
(-0.222069 0.135749 0)
(-0.522644 0.0311568 0)
(-0.62508 -0.00584018 0)
(-0.550583 -0.0170443 0)
(-0.518107 -0.00223385 0)
(-0.537737 -0.0142752 0)
(0.04223 -0.0691856 0)
(0.33354 0.0211881 0)
(-0.0756048 0.0322146 0)
(0.354956 -0.188682 0)
(0.740954 -0.0576843 0)
(-0.308333 0.194533 0)
(-1.69524 0.0950425 0)
(-1.74713 -0.0285613 0)
(-1.70195 -0.0160273 0)
(-1.6983 -0.0173396 0)
(-1.57045 -0.0369209 0)
(-0.84624 -0.116606 0)
(0.199705 -0.0178159 0)
(-0.243085 0.370348 0)
(-0.435914 0.0595262 0)
(-0.538277 0.0189107 0)
(-1.55797 0.0347823 0)
(-1.24494 -0.0781235 0)
(0.253608 -0.369442 0)
(0.604872 -0.254907 0)
(0.626703 0.0458599 0)
(0.446751 0.149664 0)
(0.367914 -0.313437 0)
(-0.938698 0.56377 0)
(-2.16822 0.616532 0)
(-2.18669 0.0378155 0)
(-2.15917 -0.0320582 0)
(-2.1043 0.00483731 0)
(-2.08761 -0.0259619 0)
(-1.95336 -0.173067 0)
(-1.39043 -0.525492 0)
(-0.399875 -0.416556 0)
(-0.341287 0.396618 0)
(-0.790179 0.174241 0)
(-0.603945 0.152359 0)
(0.203902 -0.119347 0)
(0.768592 -0.398563 0)
(0.901154 -0.486415 0)
(0.830909 -0.248117 0)
(0.760092 0.127002 0)
(0.400328 0.251994 0)
(-0.612786 0.325615 0)
(-2.35422 1.0606 0)
(-2.1354 0.728485 0)
(-1.59903 0.222659 0)
(-1.9093 -0.0595758 0)
(-2.08948 -0.009461 0)
(-2.17588 -0.0328484 0)
(-2.2622 -0.306534 0)
(-1.53188 -0.927491 0)
(-0.710776 -0.826205 0)
(-0.131199 0.27101 0)
(0.14992 0.283321 0)
(0.298669 -0.0470352 0)
(0.764632 -0.357444 0)
(0.899816 -0.461586 0)
(0.957819 -0.475639 0)
(0.967516 -0.252482 0)
(0.889016 0.237343 0)
(0.329667 0.514945 0)
(-1.12516 1.11486 0)
(-1.78734 1.08845 0)
(-0.568791 0.14605 0)
(-0.494888 0.0527658 0)
(-0.0909504 0.276891 0)
(-0.618051 0.0253476 0)
(-1.00181 0.104163 0)
(-1.52546 -0.267152 0)
(-1.46905 -1.22563 0)
(-0.683049 -1.21585 0)
(-0.886155 0.126276 0)
(-0.83244 0.0359646 0)
(0.639003 -0.256889 0)
(0.836053 -0.428709 0)
(0.93264 -0.49545 0)
(0.971521 -0.485244 0)
(1.0495 -0.287985 0)
(0.960605 0.33812 0)
(0.330619 0.892373 0)
(-0.97717 1.60084 0)
(-0.484765 0.831572 0)
(-1.04639 0.239824 0)
(-0.938769 -0.0241523 0)
(-0.989219 0.0276533 0)
(0.525809 -0.0116569 0)
(1.03953 0.360807 0)
(0.45293 0.000533782 0)
(-0.742747 -1.18083 0)
(-0.475229 -1.51564 0)
(-1.2265 0.133388 0)
(0.685954 -0.00241606 0)
(0.727404 -0.346694 0)
(0.869518 -0.47163 0)
(0.91065 -0.511848 0)
(0.950747 -0.511852 0)
(0.802358 -0.270796 0)
(0.535841 0.518314 0)
(0.320447 1.25169 0)
(-0.667914 1.76003 0)
(-0.658934 0.960619 0)
(-0.677446 0.21908 0)
(-0.593334 -0.0124529 0)
(-0.117258 -0.172632 0)
(0.432772 -0.902981 0)
(1.65821 0.274709 0)
(1.55285 0.242189 0)
(0.702651 -0.174725 0)
(-0.269983 -1.66666 0)
(-0.688713 0.186262 0)
(0.511381 -0.117804 0)
(0.771924 -0.418039 0)
(0.845005 -0.493318 0)
(0.874338 -0.524967 0)
(0.906034 -0.513579 0)
(-0.492594 0.295505 0)
(-0.318121 0.240547 0)
(0.257382 1.43491 0)
(-0.230763 1.77755 0)
(0.43274 1.20446 0)
(0.44488 0.04164 0)
(0.574836 -0.308116 0)
(1.53995 -0.530481 0)
(2.37483 -1.02269 0)
(1.98984 0.233677 0)
(1.45347 0.361108 0)
(1.38123 0.192065 0)
(-0.123164 -1.64278 0)
(0.270494 -0.123038 0)
(0.635685 -0.307505 0)
(0.751651 -0.457663 0)
(0.787849 -0.504657 0)
(0.895634 -0.565441 0)
(0.680493 -0.260016 0)
(-0.697082 0.725571 0)
(-1.09394 -0.242837 0)
(0.0488177 1.31171 0)
(0.173421 1.66147 0)
(0.521505 1.02218 0)
(1.2895 -0.246892 0)
(1.75984 -0.569082 0)
(2.58472 -0.898546 0)
(2.51072 -0.849858 0)
(1.59645 0.61914 0)
(1.24683 0.646065 0)
(0.890955 0.271856 0)
(-0.0141081 -1.53143 0)
(-0.375684 0.0146422 0)
(0.0212083 -0.0828618 0)
(-0.344766 0.107591 0)
(-0.34223 -0.0809346 0)
(-0.26914 -0.090426 0)
(-0.0764916 -0.0168489 0)
(0.00907402 0.00843489 0)
(0.0506752 0.0267296 0)
(0.0667563 0.0492447 0)
(0.0483109 0.0724508 0)
(0.0201439 0.069095 0)
(-0.00565785 0.059114 0)
(-0.0323874 0.0429586 0)
(-0.0476769 0.0313267 0)
(-0.0496742 0.0234331 0)
(-0.0417954 0.0163137 0)
(-0.0304274 0.00753536 0)
(-0.0183612 -0.000404026 0)
(-0.00449891 -0.00905489 0)
(0.0116631 -0.0197037 0)
(0.0294452 -0.0385901 0)
(0.0433783 -0.0676576 0)
(0.0530138 -0.0916371 0)
(0.0464097 0.551604 0)
(-0.228761 -0.160737 0)
(-0.654712 0.360028 0)
(-0.823204 0.105142 0)
(-0.763555 -0.290285 0)
(-0.832489 -0.362624 0)
(-0.874437 -0.164208 0)
(-0.820482 -0.0943038 0)
(-0.488294 -0.0234126 0)
(-0.223936 0.0375762 0)
(-0.103674 0.0515278 0)
(-0.0319711 0.0757754 0)
(-0.013352 0.072518 0)
(-0.01791 0.0536753 0)
(-0.0407697 0.0331563 0)
(-0.0568025 0.0116215 0)
(-0.0539231 -0.0114588 0)
(-0.0427909 -0.0176813 0)
(-0.0201177 -0.0242198 0)
(-0.00194375 -0.0314577 0)
(0.00906048 -0.0490925 0)
(0.0151964 -0.0763822 0)
(0.0295569 -0.114403 0)
(0.0172031 0.432329 0)
(-0.105299 0.223725 0)
(-0.163695 0.54272 0)
(-0.134121 0.0694734 0)
(-0.166551 -0.322796 0)
(-0.192461 -0.196208 0)
(-0.215552 -0.0556298 0)
(-0.273202 0.0194343 0)
(-0.411953 0.0182193 0)
(-0.5908 -0.128203 0)
(-0.730377 -0.251011 0)
(-0.714009 -0.100012 0)
(-0.418252 -0.00997612 0)
(-0.231778 0.0216595 0)
(-0.126166 0.0306556 0)
(-0.0658797 0.0326689 0)
(-0.0274534 -0.00341021 0)
(-0.0440029 -0.0240982 0)
(-0.0419401 -0.0472678 0)
(-0.0372064 -0.0510401 0)
(-0.028028 -0.0619343 0)
(-0.03803 -0.077952 0)
(-0.0476208 -0.138816 0)
(-0.00809345 0.387254 0)
(0.0349976 0.353838 0)
(0.0799937 0.36528 0)
(0.24304 0.119401 0)
(0.125174 -0.170956 0)
(-0.081759 -0.0993703 0)
(-0.145219 -0.0211979 0)
(-0.158592 0.0506046 0)
(-0.216616 0.0665199 0)
(-0.308937 -0.0283707 0)
(-0.292202 -0.0164305 0)
(-0.359198 0.142321 0)
(-0.53999 -0.0155774 0)
(-0.813037 -0.185466 0)
(-1.04055 -0.179448 0)
(-1.0723 -0.0849315 0)
(-0.831763 -0.167586 0)
(-0.502558 -0.098924 0)
(-0.30843 -0.0747374 0)
(-0.236443 -0.0730078 0)
(-0.11273 -0.0473055 0)
(-0.122405 -0.0244407 0)
(-0.197158 -0.0866165 0)
(-0.00293424 0.333427 0)
(0.11959 0.352562 0)
(0.148884 0.247083 0)
(0.159293 0.11334 0)
(0.0534538 0.0190208 0)
(-0.06452 0.0101374 0)
(-0.133306 0.0266859 0)
(-0.178087 0.0419554 0)
(-0.193965 0.064641 0)
(-0.196807 0.0867177 0)
(-0.232959 0.0471561 0)
(-0.29218 0.062293 0)
(-0.336103 0.0241309 0)
(-0.280521 0.0363502 0)
(-0.248115 0.0536664 0)
(-0.262885 0.108141 0)
(-0.442595 -0.0345434 0)
(-0.570081 -0.105712 0)
(-0.650492 -0.162142 0)
(-0.708354 -0.258261 0)
(-0.791261 -0.283262 0)
(-0.676997 -0.115525 0)
(-0.492122 -0.0888448 0)
(-0.0039089 0.323759 0)
(0.0452104 0.260468 0)
(0.0885244 0.242607 0)
(0.0569577 0.17422 0)
(0.00111435 0.109522 0)
(-0.0667359 0.0835098 0)
(-0.124362 0.0787259 0)
(-0.169743 0.0787251 0)
(-0.209645 0.0850349 0)
(-0.225383 0.0975652 0)
(-0.244138 0.085054 0)
(-0.271661 0.0752933 0)
(-0.300303 0.0549362 0)
(-0.30851 0.045379 0)
(-0.314809 0.0284547 0)
(-0.33069 0.010056 0)
(-0.320962 -0.0549712 0)
(-0.328381 -0.110881 0)
(-0.324931 -0.134424 0)
(-0.309158 -0.144528 0)
(-0.337507 -0.159044 0)
(-0.310228 -0.104828 0)
(-0.417471 -0.027277 0)
(-0.00849861 0.33261 0)
(0.00301187 0.226102 0)
(0.0119 0.245408 0)
(-0.00169551 0.206746 0)
(-0.0372825 0.163799 0)
(-0.0845601 0.139228 0)
(-0.131514 0.127331 0)
(-0.174218 0.121494 0)
(-0.213109 0.119105 0)
(-0.242456 0.117005 0)
(-0.267561 0.108068 0)
(-0.290529 0.0951513 0)
(-0.312704 0.0773054 0)
(-0.330007 0.0563486 0)
(-0.342465 0.0296064 0)
(-0.350568 -0.00381562 0)
(-0.347978 -0.0459534 0)
(-0.344709 -0.0775841 0)
(-0.349658 -0.0975633 0)
(-0.393179 -0.111508 0)
(-0.434204 -0.181254 0)
(-0.329675 -0.20925 0)
(-0.24614 0.0393724 0)
(-0.0119833 0.357966 0)
(-0.0194227 0.219232 0)
(-0.0216661 0.252596 0)
(-0.0372015 0.23013 0)
(-0.0656107 0.202093 0)
(-0.102562 0.182466 0)
(-0.142289 0.169671 0)
(-0.181469 0.161066 0)
(-0.218596 0.15441 0)
(-0.252234 0.146837 0)
(-0.283225 0.135329 0)
(-0.311919 0.119872 0)
(-0.337753 0.099696 0)
(-0.359169 0.0735352 0)
(-0.375466 0.0404461 0)
(-0.384742 0.00113013 0)
(-0.384295 -0.0397558 0)
(-0.373724 -0.0733052 0)
(-0.371769 -0.0729746 0)
(-0.407905 -0.0603545 0)
(-0.35716 -0.265085 0)
(-0.298219 -0.322576 0)
(-0.24948 0.0182731 0)
(-0.0151637 0.396076 0)
(-0.033779 0.224358 0)
(-0.0417489 0.264678 0)
(-0.0596166 0.252266 0)
(-0.0855552 0.233494 0)
(-0.117836 0.218998 0)
(-0.153547 0.207812 0)
(-0.190527 0.198817 0)
(-0.227433 0.190528 0)
(-0.263379 0.180911 0)
(-0.298433 0.167872 0)
(-0.332371 0.150205 0)
(-0.364165 0.12662 0)
(-0.392454 0.0957944 0)
(-0.4155 0.0567013 0)
(-0.43005 0.00917265 0)
(-0.42924 -0.0462073 0)
(-0.409237 -0.091058 0)
(-0.373548 -0.084381 0)
(-0.276657 -0.127268 0)
(-0.187229 -0.297422 0)
(-0.235526 -0.30813 0)
(-0.409522 0.107495 0)
(-0.0180842 0.444082 0)
(-0.0433554 0.235533 0)
(-0.0544302 0.280053 0)
(-0.0739493 0.274669 0)
(-0.0992461 0.262233 0)
(-0.129524 0.252267 0)
(-0.163335 0.243669 0)
(-0.199422 0.235886 0)
(-0.236926 0.227911 0)
(-0.275307 0.218195 0)
(-0.314372 0.204969 0)
(-0.353863 0.186509 0)
(-0.393065 0.161027 0)
(-0.430549 0.126538 0)
(-0.463905 0.0810068 0)
(-0.488668 0.0214936 0)
(-0.497092 -0.0543108 0)
(-0.481969 -0.123567 0)
(-0.413084 -0.177666 0)
(-0.297735 -0.257463 0)
(-0.270766 -0.293218 0)
(-0.446412 -0.0982114 0)
(-0.8239 0.439697 0)
(-0.02021 0.498392 0)
(-0.0488516 0.249736 0)
(-0.0617539 0.297371 0)
(-0.0824921 0.297663 0)
(-0.1079 0.290088 0)
(-0.137513 0.284172 0)
(-0.170651 0.278636 0)
(-0.206729 0.273159 0)
(-0.245357 0.266996 0)
(-0.286372 0.258871 0)
(-0.329781 0.247139 0)
(-0.375581 0.22985 0)
(-0.423437 0.204671 0)
(-0.472294 0.168696 0)
(-0.520007 0.118431 0)
(-0.562343 0.048159 0)
(-0.592378 -0.046904 0)
(-0.593169 -0.158482 0)
(-0.55079 -0.263456 0)
(-0.535459 -0.296627 0)
(-0.65069 -0.159488 0)
(-0.922717 0.25365 0)
(-0.999193 0.49013 0)
(-0.0203937 0.553397 0)
(-0.0491497 0.265871 0)
(-0.0643781 0.316132 0)
(-0.086393 0.321375 0)
(-0.112268 0.317861 0)
(-0.141814 0.315679 0)
(-0.17486 0.313497 0)
(-0.21131 0.311125 0)
(-0.251229 0.308001 0)
(-0.294863 0.303051 0)
(-0.342636 0.294738 0)
(-0.39504 0.281001 0)
(-0.452418 0.259084 0)
(-0.514643 0.225284 0)
(-0.580688 0.174684 0)
(-0.647934 0.0993239 0)
(-0.709566 -0.0127698 0)
(-0.753153 -0.156109 0)
(-0.804765 -0.244186 0)
(-0.937626 -0.17743 0)
(-1.13775 0.0677112 0)
(-1.20901 0.339928 0)
(-0.963135 0.205734 0)
(-0.0161998 0.601526 0)
(-0.0434503 0.284329 0)
(-0.0628612 0.336742 0)
(-0.0864428 0.345971 0)
(-0.112891 0.345865 0)
(-0.142493 0.347143 0)
(-0.175508 0.348489 0)
(-0.212252 0.349834 0)
(-0.253193 0.35079 0)
(-0.299017 0.350505 0)
(-0.350655 0.347623 0)
(-0.409278 0.340152 0)
(-0.476201 0.325215 0)
(-0.552664 0.298661 0)
(-0.63959 0.254645 0)
(-0.737044 0.183222 0)
(-0.842601 0.0671771 0)
(-0.956052 -0.0744748 0)
(-1.09837 -0.110981 0)
(-1.26408 0.0170114 0)
(-1.39732 0.166669 0)
(-1.36496 0.172619 0)
(-1.29632 0.0304978 0)
(-0.00793605 0.635904 0)
(-0.0342411 0.305766 0)
(-0.0585792 0.359764 0)
(-0.0835582 0.371429 0)
(-0.110301 0.374026 0)
(-0.139675 0.378451 0)
(-0.1723 0.383389 0)
(-0.208827 0.388889 0)
(-0.250076 0.394769 0)
(-0.297132 0.400459 0)
(-0.351463 0.404939 0)
(-0.414984 0.406543 0)
(-0.490112 0.402678 0)
(-0.579743 0.389334 0)
(-0.68722 0.360548 0)
(-0.816244 0.306058 0)
(-0.973469 0.209967 0)
(-1.17377 0.0950203 0)
(-1.3977 0.0682853 0)
(-1.57141 0.156604 0)
(-1.65833 0.231719 0)
(-1.7013 0.192054 0)
(-1.74777 0.0673047 0)
(-0.00356688 0.657389 0)
(-0.0262936 0.329973 0)
(-0.0534126 0.384722 0)
(-0.0787406 0.397232 0)
(-0.105055 0.401876 0)
(-0.133553 0.40911 0)
(-0.165083 0.417589 0)
(-0.200521 0.427481 0)
(-0.240934 0.438855 0)
(-0.287731 0.451522 0)
(-0.342819 0.464961 0)
(-0.408803 0.47815 0)
(-0.489177 0.489253 0)
(-0.588495 0.495075 0)
(-0.712476 0.490363 0)
(-0.867729 0.466407 0)
(-1.06293 0.413821 0)
(-1.30472 0.34245 0)
(-1.55418 0.289659 0)
(-1.7237 0.279273 0)
(-1.79825 0.282384 0)
(-1.8591 0.248581 0)
(-1.95863 0.170118 0)
(-0.00535565 0.67521 0)
(-0.0220413 0.354999 0)
(-0.0485186 0.409936 0)
(-0.0726971 0.422371 0)
(-0.0975888 0.428608 0)
(-0.12435 0.438328 0)
(-0.15386 0.450175 0)
(-0.187083 0.464459 0)
(-0.225198 0.481533 0)
(-0.269775 0.50168 0)
(-0.322991 0.525056 0)
(-0.387922 0.551581 0)
(-0.46892 0.580683 0)
(-0.572064 0.610705 0)
(-0.705569 0.637838 0)
(-0.879368 0.65414 0)
(-1.10227 0.647637 0)
(-1.36893 0.601161 0)
(-1.62017 0.495861 0)
(-1.75731 0.383718 0)
(-1.8076 0.347316 0)
(-1.89828 0.342122 0)
(-1.99482 0.31107 0)
(-0.00680226 0.693827 0)
(-0.0205256 0.378114 0)
(-0.0438986 0.433424 0)
(-0.0656585 0.445699 0)
(-0.0881783 0.45329 0)
(-0.11231 0.465183 0)
(-0.138818 0.48008 0)
(-0.168605 0.498454 0)
(-0.202806 0.520979 0)
(-0.242938 0.548443 0)
(-0.291168 0.581793 0)
(-0.350656 0.622146 0)
(-0.426125 0.670694 0)
(-0.52475 0.728303 0)
(-0.65749 0.794338 0)
(-0.840526 0.863398 0)
(-1.09426 0.918387 0)
(-1.43153 0.905312 0)
(-1.79611 0.698021 0)
(-1.90987 0.421828 0)
(-1.79603 0.375262 0)
(-1.94565 0.457119 0)
(-2.01813 0.346696 0)
(-0.00622007 0.711675 0)
(-0.0194807 0.398268 0)
(-0.0389885 0.453949 0)
(-0.0576062 0.466311 0)
(-0.0770323 0.47509 0)
(-0.0977634 0.488793 0)
(-0.120376 0.506237 0)
(-0.145591 0.528081 0)
(-0.174323 0.555285 0)
(-0.207812 0.589118 0)
(-0.247859 0.631301 0)
(-0.297134 0.684197 0)
(-0.359838 0.751084 0)
(-0.442895 0.836362 0)
(-0.558391 0.945507 0)
(-0.728775 1.0832 0)
(-0.997002 1.2466 0)
(-1.4876 1.39866 0)
(-1.89426 0.943647 0)
(-1.68584 0.168385 0)
(-1.48721 0.303356 0)
(-1.54393 0.797082 0)
(-1.39366 0.122424 0)
(-0.00530212 0.727825 0)
(-0.0180848 0.415245 0)
(-0.0334341 0.470979 0)
(-0.0485708 0.483657 0)
(-0.0644357 0.493374 0)
(-0.0812035 0.508424 0)
(-0.0992236 0.527742 0)
(-0.118952 0.552121 0)
(-0.14096 0.582747 0)
(-0.166004 0.621226 0)
(-0.195157 0.669838 0)
(-0.229991 0.73193 0)
(-0.272982 0.812525 0)
(-0.328361 0.919437 0)
(-0.404091 1.0655 0)
(-0.51719 1.27257 0)
(-0.708649 1.59558 0)
(-1.1294 1.98114 0)
(-1.62472 0.883204 0)
(-1.76273 0.105475 0)
(-1.63947 0.130065 0)
(-1.34568 0.555405 0)
(-1.24735 -0.0108285 0)
(-0.00453849 0.742427 0)
(-0.0162885 0.42856 0)
(-0.0271803 0.48426 0)
(-0.0387319 0.497444 0)
(-0.050799 0.50774 0)
(-0.0632676 0.523565 0)
(-0.0762643 0.543936 0)
(-0.0899441 0.569705 0)
(-0.104463 0.602136 0)
(-0.119987 0.642964 0)
(-0.136663 0.694654 0)
(-0.154562 0.760866 0)
(-0.173608 0.847184 0)
(-0.193343 0.962533 0)
(-0.21222 1.12233 0)
(-0.225473 1.35545 0)
(-0.216195 1.72649 0)
(-0.096924 2.34519 0)
(-0.578316 1.4765 0)
(-1.02398 0.398014 0)
(-1.07198 -0.00437607 0)
(-1.14772 0.36263 0)
(-1.27207 0.307007 0)
(-0.00382585 0.755503 0)
(-0.0139734 0.43769 0)
(-0.0203512 0.493752 0)
(-0.0284055 0.507591 0)
(-0.036628 0.517999 0)
(-0.0446838 0.533965 0)
(-0.052512 0.554499 0)
(-0.0599878 0.580418 0)
(-0.0668675 0.612919 0)
(-0.0727235 0.653604 0)
(-0.0768363 0.704709 0)
(-0.0778697 0.769431 0)
(-0.0734163 0.852411 0)
(-0.0589272 0.960542 0)
(-0.0251186 1.10427 0)
(0.0481389 1.29937 0)
(0.206216 1.5668 0)
(0.568009 1.91936 0)
(1.11218 1.94551 0)
(0.890403 0.931888 0)
(0.342622 0.356998 0)
(0.0128294 0.27619 0)
(0.0386492 0.208123 0)
(-0.00316732 0.766902 0)
(-0.0109979 0.442391 0)
(-0.0133017 0.499639 0)
(-0.0180457 0.514165 0)
(-0.0224907 0.524142 0)
(-0.0262114 0.539612 0)
(-0.029018 0.559456 0)
(-0.0305362 0.584353 0)
(-0.0302041 0.615309 0)
(-0.0271434 0.653614 0)
(-0.0199992 0.700923 0)
(-0.00656866 0.759471 0)
(0.0168078 0.832083 0)
(0.0562718 0.92214 0)
(0.122608 1.03303 0)
(0.234426 1.16551 0)
(0.423404 1.3095 0)
(0.735138 1.42146 0)
(1.20715 1.38303 0)
(1.5753 1.02984 0)
(1.60299 0.642354 0)
(1.55602 0.411614 0)
(1.57134 0.190602 0)
(-0.00259486 0.776411 0)
(-0.00743866 0.442931 0)
(-0.00659001 0.502244 0)
(-0.0081697 0.517268 0)
(-0.00897787 0.526305 0)
(-0.00861126 0.540718 0)
(-0.00676234 0.559131 0)
(-0.0028984 0.582034 0)
(0.00375073 0.610161 0)
(0.0143547 0.644374 0)
(0.0305321 0.685695 0)
(0.0548035 0.735203 0)
(0.0909027 0.793959 0)
(0.14451 0.862353 0)
(0.224043 0.939028 0)
(0.341278 1.01813 0)
(0.510261 1.08421 0)
(0.739875 1.10413 0)
(1.01026 1.02448 0)
(1.24574 0.819268 0)
(1.37015 0.571161 0)
(1.41867 0.354612 0)
(1.43849 0.150754 0)
(-0.00207214 0.783582 0)
(-0.00356887 0.440199 0)
(-0.000701689 0.501958 0)
(0.000777446 0.516984 0)
(0.00339688 0.524728 0)
(0.0074717 0.537657 0)
(0.0134157 0.554108 0)
(0.0218656 0.574324 0)
(0.0337019 0.598773 0)
(0.0501404 0.627873 0)
(0.0728609 0.662024 0)
(0.10419 0.701431 0)
(0.147313 0.745813 0)
(0.206512 0.793849 0)
(0.28718 0.842211 0)
(0.395233 0.883923 0)
(0.53492 0.906347 0)
(0.703513 0.8902 0)
(0.882708 0.814581 0)
(1.03564 0.675367 0)
(1.13267 0.502235 0)
(1.17824 0.328252 0)
(1.18797 0.160768 0)
(-0.00149006 0.787811 0)
(0.000113856 0.435425 0)
(0.00414244 0.499162 0)
(0.00856115 0.513461 0)
(0.0142801 0.519779 0)
(0.0215649 0.530976 0)
(0.030934 0.545116 0)
(0.0430669 0.562249 0)
(0.0588526 0.582562 0)
(0.0794544 0.606138 0)
(0.10637 0.632893 0)
(0.141531 0.662427 0)
(0.187339 0.693733 0)
(0.246623 0.724791 0)
(0.322366 0.751971 0)
(0.416872 0.769321 0)
(0.530124 0.768178 0)
(0.657193 0.738064 0)
(0.785699 0.670454 0)
(0.897438 0.565726 0)
(0.977601 0.436687 0)
(1.02321 0.299679 0)
(1.03809 0.164499 0)
(-0.000562777 0.788653 0)
(0.00289116 0.429806 0)
(0.00790917 0.494181 0)
(0.015065 0.506977 0)
(0.0234692 0.511921 0)
(0.0333908 0.52128 0)
(0.0454628 0.532952 0)
(0.060358 0.546846 0)
(0.0789106 0.56294 0)
(0.102142 0.581058 0)
(0.131302 0.600811 0)
(0.167853 0.621454 0)
(0.213452 0.641711 0)
(0.269788 0.659481 0)
(0.338248 0.671562 0)
(0.419272 0.673477 0)
(0.511352 0.659653 0)
(0.609965 0.624424 0)
(0.707054 0.564201 0)
(0.7925 0.480138 0)
(0.857945 0.37893 0)
(0.899816 0.269752 0)
(0.918511 0.160603 0)
(0.000898678 0.784851 0)
(0.00401123 0.423569 0)
(0.0106808 0.487181 0)
(0.0202968 0.497954 0)
(0.0308894 0.501699 0)
(0.0428389 0.509236 0)
(0.0568831 0.518442 0)
(0.0736529 0.529148 0)
(0.0938898 0.541188 0)
(0.118461 0.554218 0)
(0.148333 0.567688 0)
(0.184565 0.580734 0)
(0.228213 0.592051 0)
(0.28017 0.59976 0)
(0.340899 0.601302 0)
(0.409994 0.593489 0)
(0.485659 0.572822 0)
(0.564303 0.53621 0)
(0.640609 0.482143 0)
(0.708491 0.411801 0)
(0.762834 0.329199 0)
(0.800847 0.240058 0)
(0.822135 0.150238 0)
(0.00226724 0.777098 0)
(0.00463293 0.417205 0)
(0.0127996 0.478314 0)
(0.0243911 0.486955 0)
(0.0365958 0.489695 0)
(0.0499582 0.495508 0)
(0.0652719 0.502375 0)
(0.0831102 0.510092 0)
(0.104106 0.518404 0)
(0.128967 0.526886 0)
(0.158418 0.534932 0)
(0.19318 0.541681 0)
(0.233885 0.545945 0)
(0.280922 0.546158 0)
(0.334274 0.54038 0)
(0.393225 0.5264 0)
(0.456114 0.502028 0)
(0.520244 0.465569 0)
(0.582028 0.416443 0)
(0.637593 0.355681 0)
(0.683674 0.285935 0)
(0.718297 0.210996 0)
(0.741025 0.135049 0)
(0.00348292 0.766792 0)
(0.00464124 0.410877 0)
(0.0144681 0.467885 0)
(0.0275007 0.474591 0)
(0.0407392 0.476493 0)
(0.0549424 0.480728 0)
(0.0708858 0.485463 0)
(0.0890909 0.490483 0)
(0.110091 0.495482 0)
(0.134435 0.500022 0)
(0.162658 0.503508 0)
(0.195223 0.505149 0)
(0.232482 0.503934 0)
(0.274533 0.498607 0)
(0.321128 0.487729 0)
(0.371506 0.469791 0)
(0.424262 0.443423 0)
(0.477403 0.407692 0)
(0.528465 0.362452 0)
(0.574885 0.308565 0)
(0.614532 0.247879 0)
(0.646063 0.182999 0)
(0.669162 0.116903 0)
(0.00532081 0.753843 0)
(0.00349732 0.40413 0)
(0.0158283 0.456076 0)
(0.0298164 0.461376 0)
(0.0435511 0.462622 0)
(0.0580684 0.465481 0)
(0.0740908 0.468336 0)
(0.0920853 0.470984 0)
(0.112492 0.473116 0)
(0.135741 0.474315 0)
(0.16221 0.47404 0)
(0.192185 0.471599 0)
(0.225832 0.466157 0)
(0.263102 0.456743 0)
(0.303656 0.442295 0)
(0.346787 0.421791 0)
(0.391362 0.394371 0)
(0.435916 0.359532 0)
(0.478732 0.317319 0)
(0.51808 0.268432 0)
(0.55257 0.214194 0)
(0.581341 0.156428 0)
(0.604238 0.0972172 0)
(0.00796738 0.736587 0)
(0.00276913 0.397119 0)
(0.0173662 0.443098 0)
(0.0316477 0.44778 0)
(0.045347 0.448576 0)
(0.0596963 0.450277 0)
(0.0753317 0.451513 0)
(0.0926538 0.452112 0)
(0.112046 0.451805 0)
(0.133825 0.450215 0)
(0.158245 0.446867 0)
(0.185494 0.44119 0)
(0.215613 0.432499 0)
(0.248473 0.420052 0)
(0.283726 0.403085 0)
(0.320761 0.380897 0)
(0.358694 0.352948 0)
(0.396444 0.318962 0)
(0.432827 0.279063 0)
(0.466676 0.2338 0)
(0.497086 0.184109 0)
(0.523527 0.131273 0)
(0.545962 0.0767516 0)
(0.0106627 0.713023 0)
(0.00456465 0.390993 0)
(0.0195681 0.429425 0)
(0.0332969 0.43434 0)
(0.0464545 0.434844 0)
(0.0601928 0.435563 0)
(0.0750477 0.435401 0)
(0.0913708 0.434246 0)
(0.109461 0.431872 0)
(0.129554 0.427964 0)
(0.151825 0.422119 0)
(0.176367 0.413868 0)
(0.203168 0.402673 0)
(0.232059 0.387965 0)
(0.262718 0.369192 0)
(0.294636 0.345866 0)
(0.327145 0.31764 0)
(0.359462 0.284369 0)
(0.390747 0.246179 0)
(0.420208 0.203486 0)
(0.447247 0.156972 0)
(0.471516 0.107526 0)
(0.493017 0.0561658 0)
(0.0125028 0.682195 0)
(0.00997572 0.387213 0)
(0.0225666 0.416041 0)
(0.0349636 0.421661 0)
(0.0470826 0.421887 0)
(0.0598213 0.421721 0)
(0.073595 0.420319 0)
(0.0886781 0.417642 0)
(0.10529 0.413511 0)
(0.123592 0.407669 0)
(0.143692 0.399793 0)
(0.165633 0.389494 0)
(0.189349 0.376351 0)
(0.214674 0.359935 0)
(0.241324 0.339837 0)
(0.268885 0.315712 0)
(0.296849 0.287329 0)
(0.324634 0.254613 0)
(0.351626 0.217675 0)
(0.377273 0.176832 0)
(0.401148 0.132569 0)
(0.423026 0.0855261 0)
(0.442922 0.0363804 0)
(0.0129761 0.645185 0)
(0.0180623 0.386211 0)
(0.0261066 0.40431 0)
(0.0365957 0.410339 0)
(0.0472526 0.41012 0)
(0.058689 0.409054 0)
(0.0711615 0.406503 0)
(0.0848325 0.402475 0)
(0.0998479 0.396833 0)
(0.116303 0.389374 0)
(0.134239 0.379834 0)
(0.153654 0.367901 0)
(0.17447 0.353242 0)
(0.196518 0.335528 0)
(0.219548 0.314452 0)
(0.243228 0.289768 0)
(0.267162 0.261317 0)
(0.290905 0.229052 0)
(0.314012 0.193076 0)
(0.336087 0.153618 0)
(0.356844 0.111021 0)
(0.376128 0.0657136 0)
(0.393984 0.0181537 0)
(0.0122849 0.604738 0)
(0.0262551 0.386587 0)
(0.0295465 0.395443 0)
(0.037787 0.400795 0)
(0.0467448 0.399844 0)
(0.0566856 0.397779 0)
(0.0676937 0.394116 0)
(0.0798322 0.388865 0)
(0.093155 0.381918 0)
(0.107693 0.37311 0)
(0.123449 0.362219 0)
(0.14038 0.34899 0)
(0.158401 0.333161 0)
(0.17735 0.314479 0)
(0.197014 0.292703 0)
(0.217127 0.267646 0)
(0.237378 0.239194 0)
(0.257451 0.207317 0)
(0.277018 0.17209 0)
(0.295799 0.133673 0)
(0.313594 0.0923034 0)
(0.330286 0.0482704 0)
(0.34588 0.00189215 0)
(0.0112428 0.563991 0)
(0.0321069 0.386477 0)
(0.0318299 0.389838 0)
(0.0379458 0.393163 0)
(0.0451798 0.391189 0)
(0.053557 0.388022 0)
(0.0630309 0.383271 0)
(0.0735514 0.376913 0)
(0.0851077 0.368845 0)
(0.0976942 0.358918 0)
(0.111264 0.346939 0)
(0.12577 0.332701 0)
(0.141116 0.315985 0)
(0.157152 0.296582 0)
(0.173708 0.274306 0)
(0.190571 0.249009 0)
(0.207505 0.220597 0)
(0.22427 0.189039 0)
(0.240622 0.154388 0)
(0.256345 0.116766 0)
(0.27126 0.0763396 0)
(0.285222 0.0333483 0)
(0.298137 -0.0119584 0)
(0.0103552 0.524973 0)
(0.0342302 0.385192 0)
(0.0321025 0.386779 0)
(0.0366104 0.387262 0)
(0.0423236 0.384109 0)
(0.0492199 0.379803 0)
(0.0571596 0.374013 0)
(0.0660566 0.366667 0)
(0.0758544 0.357642 0)
(0.0865078 0.346789 0)
(0.0979628 0.333941 0)
(0.110149 0.318916 0)
(0.122975 0.301525 0)
(0.136309 0.281596 0)
(0.150005 0.258971 0)
(0.163887 0.23353 0)
(0.177755 0.205193 0)
(0.191413 0.173931 0)
(0.20466 0.139787 0)
(0.217305 0.10286 0)
(0.229203 0.0632978 0)
(0.240256 0.0212753 0)
(0.250478 -0.0230456 0)
(0.00959962 0.488901 0)
(0.032663 0.383439 0)
(0.0302239 0.384974 0)
(0.0337237 0.382733 0)
(0.0382245 0.378419 0)
(0.0437888 0.37304 0)
(0.0502864 0.366307 0)
(0.0576136 0.358093 0)
(0.0657067 0.348258 0)
(0.0744961 0.336652 0)
(0.0839124 0.323121 0)
(0.0938841 0.307496 0)
(0.104312 0.289612 0)
(0.115072 0.269327 0)
(0.126032 0.246505 0)
(0.137036 0.221038 0)
(0.147914 0.192861 0)
(0.158513 0.161939 0)
(0.16871 0.128295 0)
(0.178428 0.0919885 0)
(0.187647 0.0530949 0)
(0.196372 0.0117304 0)
(0.20461 -0.0320274 0)
(0.00890714 0.456674 0)
(0.0284797 0.382172 0)
(0.0266577 0.38343 0)
(0.0295165 0.379209 0)
(0.0330474 0.373907 0)
(0.0374201 0.36761 0)
(0.0425729 0.360073 0)
(0.0484005 0.351134 0)
(0.0548291 0.340642 0)
(0.0618 0.32845 0)
(0.0692294 0.314409 0)
(0.0770337 0.298363 0)
(0.0851244 0.280168 0)
(0.0933889 0.259697 0)
(0.101709 0.236823 0)
(0.109969 0.211446 0)
(0.118066 0.183488 0)
(0.125926 0.152882 0)
(0.133505 0.1196 0)
(0.140785 0.0836636 0)
(0.14774 0.0451517 0)
(0.154287 0.00425401 0)
(0.160388 -0.0389834 0)
(0.00811553 0.428913 0)
(0.0229745 0.381835 0)
(0.0220054 0.381849 0)
(0.0242792 0.376481 0)
(0.0269485 0.370427 0)
(0.0302344 0.363417 0)
(0.0340978 0.355241 0)
(0.0384764 0.345741 0)
(0.0432978 0.334758 0)
(0.0485028 0.322144 0)
(0.054019 0.307756 0)
(0.0597618 0.291453 0)
(0.0656626 0.273094 0)
(0.0716312 0.252559 0)
(0.077575 0.229725 0)
(0.0834016 0.204478 0)
(0.089036 0.176725 0)
(0.0944139 0.146379 0)
(0.0994752 0.113389 0)
(0.104217 0.0777632 0)
(0.108692 0.0395783 0)
(0.112968 -0.00102506 0)
(0.117035 -0.0439018 0)
(0.00696347 0.406133 0)