/*--------------------------------*- C++ -*----------------------------------*\
| =========                 |                                                 |
| \\      /  F ield         | OpenFOAM: The Open Source CFD Toolbox           |
|  \\    /   O peration     | Version:  v1912                                 |
|   \\  /    A nd           | Website:  www.openfoam.com                      |
|    \\/     M anipulation  |                                                 |
\*---------------------------------------------------------------------------*/
FoamFile
{
    version     2.0;
    format      ascii;
    class       surfaceScalarField;
    location    "0.2";
    object      alphaPhi0.water;
}
// * * * * * * * * * * * * * * * * * * * * * * * * * * * * * * * * * * * * * //

dimensions      [0 3 -1 0 0 0 0];
oriented        oriented;


internalField   nonuniform List<scalar> 
17936
(
4.54986e-07
-9.26067e-07
4.7108e-07
-1.9045e-06
3.60503e-06
-1.70053e-06
-5.21113e-06
6.66076e-06
-1.44963e-06
-8.0017e-06
9.29686e-06
-1.29516e-06
-1.05907e-05
1.19047e-05
-1.31401e-06
-1.32449e-05
1.46101e-05
-1.36519e-06
-1.59972e-05
1.74034e-05
-1.40614e-06
-1.88264e-05
2.02644e-05
-1.43801e-06
-2.17154e-05
2.3177e-05
-1.46156e-06
-2.46457e-05
2.61171e-05
-1.47139e-06
-2.75855e-05
2.90434e-05
-1.45796e-06
-3.04826e-05
3.1892e-05
-1.40942e-06
-3.32589e-05
3.45679e-05
-1.30906e-06
-3.58012e-05
3.69381e-05
-1.13692e-06
-3.79543e-05
3.88216e-05
-8.67293e-07
-3.95073e-05
3.9968e-05
-4.60676e-07
-4.01253e-05
3.98347e-05
2.90602e-07
-3.88817e-05
3.70524e-05
1.82936e-06
-3.40778e-05
2.95968e-05
4.48099e-06
-2.32076e-05
1.47709e-05
8.43674e-06
-5.05923e-06
-3.40349e-06
8.54779e-06
4.74481e-06
-8.68293e-06
3.079e-06
1.79727e-05
-1.68123e-05
-5.62399e-06
1.40197e-06
-1.88624e-06
4.84271e-07
-1.94073e-06
3.65637e-06
3.42106e-06
-5.13669e-06
-5.27897e-06
6.74473e-06
2.92105e-06
-4.38681e-06
-8.10259e-06
9.41654e-06
2.61098e-06
-3.92494e-06
-1.07301e-05
1.20637e-05
2.64799e-06
-3.9816e-06
-1.3423e-05
1.48066e-05
2.7498e-06
-4.13349e-06
-1.62119e-05
1.7636e-05
2.83153e-06
-4.25569e-06
-1.90772e-05
2.05335e-05
2.8953e-06
-4.35167e-06
-2.20033e-05
2.34842e-05
2.94266e-06
-4.42354e-06
-2.49728e-05
2.64651e-05
2.96285e-06
-4.45508e-06
-2.79553e-05
2.94364e-05
2.93693e-06
-4.41801e-06
-3.09002e-05
3.2336e-05
2.84142e-06
-4.27726e-06
-3.37314e-05
3.50715e-05
2.64314e-06
-3.98328e-06
-3.63388e-05
3.75134e-05
2.30258e-06
-3.47715e-06
-3.85715e-05
3.94862e-05
1.76903e-06
-2.68367e-06
-4.02265e-05
4.07588e-05
9.71283e-07
-1.50358e-06
-4.10414e-05
4.10323e-05
-1.9558e-07
2.04663e-07
-4.06903e-05
4.00119e-05
-2.02095e-06
2.69935e-06
-3.90424e-05
3.79154e-05
-5.5074e-06
6.63441e-06
-3.68142e-05
3.5611e-05
-1.27192e-05
1.39223e-05
-3.32106e-05
2.72812e-05
-2.00787e-05
2.60081e-05
-1.63491e-05
3.16268e-06
-1.07056e-05
2.9926e-05
3.19656e-06
-3.25718e-06
1.01376e-05
-1.0358e-05
2.38104e-06
-2.88824e-06
5.07199e-07
-1.96115e-06
3.663e-06
6.84643e-06
-8.54828e-06
-5.26591e-06
6.7152e-06
5.84552e-06
-7.29481e-06
-8.0641e-06
9.37599e-06
5.23797e-06
-6.54987e-06
-1.06913e-05
1.20276e-05
5.31643e-06
-6.65273e-06
-1.33889e-05
1.47737e-05
5.51767e-06
-6.90245e-06
-1.61794e-05
1.76039e-05
5.67998e-06
-7.10446e-06
-1.90457e-05
2.05036e-05
5.80864e-06
-7.2665e-06
-2.19759e-05
2.34608e-05
5.90609e-06
-7.39099e-06
-2.49552e-05
2.6455e-05
5.9505e-06
-7.45033e-06
-2.79551e-05
2.94485e-05
5.90426e-06
-7.39767e-06
-3.09275e-05
3.23818e-05
5.72084e-06
-7.17514e-06
-3.37993e-05
3.51656e-05
5.33443e-06
-6.70075e-06
-3.64636e-05
3.7674e-05
4.66685e-06
-5.87723e-06
-3.87737e-05
3.97367e-05
3.61894e-06
-4.58196e-06
-4.05335e-05
4.11306e-05
2.06363e-06
-2.66081e-06
-4.14909e-05
4.15736e-05
-1.74866e-07
9.22331e-08
-4.13356e-05
4.07363e-05
-3.39016e-06
3.9894e-06
-3.97414e-05
3.83356e-05
-8.11688e-06
9.52276e-06
-3.65666e-05
3.46654e-05
-1.53192e-05
1.72204e-05
-3.3247e-05
3.28195e-05
-2.74054e-05
2.78328e-05
-3.24957e-05
3.03073e-05
-3.70361e-05
3.92247e-05
-2.44157e-05
1.27615e-05
2.27318e-06
9.43156e-06
3.40949e-06
-3.9467e-06
5.37205e-07
-1.99086e-06
3.67223e-06
1.02405e-05
-1.19219e-05
-5.24489e-06
6.66952e-06
8.73259e-06
-1.01572e-05
-8.00565e-06
9.3148e-06
7.86037e-06
-9.16952e-06
-1.06327e-05
1.19727e-05
7.9907e-06
-9.33079e-06
-1.33371e-05
1.47238e-05
8.28796e-06
-9.67468e-06
-1.61308e-05
1.75568e-05
8.52936e-06
-9.95533e-06
-1.9001e-05
2.04628e-05
8.7258e-06
-1.01876e-05
-2.1941e-05
2.34341e-05
8.87927e-06
-1.03724e-05
-2.49396e-05
2.64537e-05
8.95627e-06
-1.04704e-05
-2.79717e-05
2.94873e-05
8.90076e-06
-1.04163e-05
-3.09932e-05
3.24797e-05
8.64369e-06
-1.01302e-05
-3.39354e-05
3.53465e-05
8.08703e-06
-9.49811e-06
-3.66965e-05
3.79669e-05
7.11451e-06
-8.38489e-06
-3.91355e-05
4.01773e-05
5.58045e-06
-6.62229e-06
-4.1064e-05
4.17635e-05
3.30434e-06
-4.00385e-06
-4.22407e-05
4.24583e-05
5.26898e-08
-2.7027e-07
-4.23784e-05
4.19664e-05
-4.49728e-06
4.90923e-06
-4.11969e-05
4.00602e-05
-1.07824e-05
1.1919e-05
-3.85687e-05
3.67477e-05
-1.91582e-05
2.09793e-05
-3.46449e-05
3.25782e-05
-2.90758e-05
3.11425e-05
-3.1318e-05
3.06787e-05
-3.94346e-05
4.00739e-05
-2.72608e-05
1.64098e-05
-2.14925e-05
3.23437e-05
4.5021e-06
-5.07846e-06
5.76364e-07
-2.03107e-06
3.68575e-06
1.35909e-05
-1.52456e-05
-5.21927e-06
6.61333e-06
1.15673e-05
-1.29613e-05
-7.93483e-06
9.24189e-06
1.04776e-05
-1.17846e-05
-1.05637e-05
1.19091e-05
1.06735e-05
-1.20188e-05
-1.32777e-05
1.46674e-05
1.1063e-05
-1.24528e-05
-1.60771e-05
1.75061e-05
1.13829e-05
-1.2812e-05
-1.89548e-05
2.0423e-05
1.16525e-05
-1.31207e-05
-2.19102e-05
2.34154e-05
1.18715e-05
-1.33767e-05
-2.49365e-05
2.64703e-05
1.19941e-05
-1.3528e-05
-2.80129e-05
2.95585e-05
1.19464e-05
-1.3492e-05
-3.11007e-05
3.26305e-05
1.16375e-05
-1.31673e-05
-3.41373e-05
3.56082e-05
1.09377e-05
-1.24087e-05
-3.70279e-05
3.83788e-05
9.69348e-06
-1.10444e-05
-3.964e-05
4.07878e-05
7.71429e-06
-8.86212e-06
-4.17952e-05
4.26318e-05
4.76825e-06
-5.60485e-06
-4.32643e-05
4.36575e-05
5.7118e-07
-9.64438e-07
-4.37757e-05
4.35841e-05
-5.21586e-06
5.40751e-06
-4.30515e-05
4.2153e-05
-1.29398e-05
1.38383e-05
-4.08725e-05
3.92018e-05
-2.27125e-05
2.43832e-05
-3.71245e-05
3.45291e-05
-3.35951e-05
3.61905e-05
-3.13111e-05
2.77206e-05
-4.22062e-05
4.57968e-05
-2.30178e-05
1.42032e-05
-4.18924e-05
5.0707e-05
5.67823e-06
-6.30338e-06
6.25149e-07
-2.08002e-06
3.69879e-06
1.68836e-05
-1.85023e-05
-5.18434e-06
6.54328e-06
1.43383e-05
-1.56973e-05
-7.84912e-06
9.1543e-06
1.30908e-05
-1.4396e-05
-1.04801e-05
1.18298e-05
1.33666e-05
-1.47163e-05
-1.32012e-05
1.45924e-05
1.38436e-05
-1.52348e-05
-1.60031e-05
1.74339e-05
1.42422e-05
-1.56731e-05
-1.88861e-05
2.03602e-05
1.4592e-05
-1.60661e-05
-2.18563e-05
2.33741e-05
1.48881e-05
-1.64059e-05
-2.49121e-05
2.64679e-05
1.50725e-05
-1.66284e-05
-2.80383e-05
2.96186e-05
1.50543e-05
-1.66346e-05
-3.12032e-05
3.27843e-05
1.47217e-05
-1.63027e-05
-3.43522e-05
3.58952e-05
1.39141e-05
-1.54571e-05
-3.7399e-05
3.88476e-05
1.24419e-05
-1.38905e-05
-4.02213e-05
4.14976e-05
1.00714e-05
-1.13476e-05
-4.26507e-05
4.36517e-05
6.52031e-06
-7.52135e-06
-4.44689e-05
4.50688e-05
1.45738e-06
-2.05725e-06
-4.54159e-05
4.54744e-05
-5.47702e-06
5.41857e-06
-4.52066e-05
4.45733e-05
-1.46068e-05
1.52402e-05
-4.35304e-05
4.20218e-05
-2.59829e-05
2.74915e-05
-3.99687e-05
3.72444e-05
-3.88643e-05
4.15886e-05
-3.35348e-05
2.84328e-05
-5.03736e-05
5.54755e-05
-2.18339e-05
1.2948e-05
-5.93542e-05
6.82401e-05
6.95521e-06
-7.63485e-06
6.79644e-07
-2.13199e-06
3.70655e-06
2.00999e-05
-2.16745e-05
-5.13811e-06
6.45955e-06
1.70376e-05
-1.8359e-05
-7.74927e-06
9.05205e-06
1.57001e-05
-1.70028e-05
-1.03803e-05
1.17322e-05
1.60674e-05
-1.74193e-05
-1.3104e-05
1.44944e-05
1.66258e-05
-1.80162e-05
-1.59043e-05
1.73358e-05
1.71044e-05
-1.85358e-05
-1.87907e-05
2.02704e-05
1.75431e-05
-1.90229e-05
-2.17759e-05
2.33073e-05
1.79304e-05
-1.94618e-05
-2.48639e-05
2.64445e-05
1.81963e-05
-1.97769e-05
-2.80468e-05
2.9667e-05
1.82342e-05
-1.98544e-05
-3.13009e-05
3.29417e-05
1.79127e-05
-1.95535e-05
-3.45812e-05
3.62089e-05
1.7041e-05
-1.86687e-05
-3.78119e-05
3.93757e-05
1.53946e-05
-1.69584e-05
-4.08819e-05
4.23093e-05
1.26968e-05
-1.41242e-05
-4.36336e-05
4.48277e-05
8.61525e-06
-9.8093e-06
-4.58613e-05
4.67015e-05
2.77261e-06
-3.61281e-06
-4.73107e-05
4.76494e-05
-5.2249e-06
4.88622e-06
-4.7672e-05
4.73279e-05
-1.57332e-05
1.60773e-05
-4.65579e-05
4.52868e-05
-2.88903e-05
3.01614e-05
-4.3404e-05
4.07427e-05
-4.43146e-05
4.69759e-05
-3.70328e-05
3.1742e-05
-6.07811e-05
6.60719e-05
-2.42673e-05
1.44364e-05
-7.75893e-05
8.74201e-05
8.34366e-06
-9.08296e-06
7.39302e-07
-2.18479e-06
3.70625e-06
2.32236e-05
-2.47451e-05
-5.07961e-06
6.36344e-06
1.96615e-05
-2.09453e-05
-7.63767e-06
8.93742e-06
1.83042e-05
-1.96039e-05
-1.02659e-05
1.16169e-05
1.87711e-05
-2.01221e-05
-1.29859e-05
1.43728e-05
1.94052e-05
-2.07921e-05
-1.57799e-05
1.72102e-05
1.99669e-05
-2.13972e-05
-1.86667e-05
2.01512e-05
2.05052e-05
-2.19897e-05
-2.16654e-05
2.32104e-05
2.1e-05
-2.25449e-05
-2.47863e-05
2.6393e-05
2.13704e-05
-2.29771e-05
-2.80294e-05
2.96929e-05
2.14959e-05
-2.31595e-05
-3.13807e-05
3.30876e-05
2.12266e-05
-2.29334e-05
-3.48065e-05
3.65289e-05
2.03426e-05
-2.20649e-05
-3.82433e-05
3.99365e-05
1.85853e-05
-2.02785e-05
-4.15916e-05
4.31893e-05
1.56345e-05
-1.72322e-05
-4.47076e-05
4.6122e-05
1.11103e-05
-1.25246e-05
-4.74035e-05
4.85191e-05
4.58661e-06
-5.70224e-06
-4.94292e-05
5.00882e-05
-4.39218e-06
3.73317e-06
-5.04457e-05
5.04418e-05
-1.62592e-05
1.62631e-05
-5.00083e-05
4.90641e-05
-3.1283e-05
3.22273e-05
-4.75039e-05
4.51766e-05
-4.95034e-05
5.18308e-05
-4.18407e-05
3.71025e-05
-7.11758e-05
7.5914e-05
-2.99382e-05
2.00133e-05
-9.76582e-05
0.000107583
2.44573e-41
-1.37409e-40
8.91106e-42
-8.3772e-42
2.26548e-41
-9.59401e-42
-4.59291e-42
6.80593e-43
-1.30969e-42
-4.8563e-44
1.65632e-45
-9.98099e-45
-4.77761e-47
1.65835e-48
-8.25118e-48
-5.60985e-50
1.90045e-51
-7.40299e-51
-6.07182e-53
1.82872e-54
-7.43337e-54
-4.39522e-56
9.99445e-58
-2.71589e-57
-1.8524e-59
3.42812e-61
-1.04416e-61
-5.64666e-63
2.88429e-64
4.50416e-65
-1.64311e-66
1.22389e-67
2.68528e-68
-4.04931e-70
4.89473e-71
9.80955e-72
-7.78052e-74
1.58635e-74
2.56576e-75
-9.78719e-78
1.81695e-78
4.1459e-79
-9.42144e-82
1.44865e-82
4.97781e-83
-5.96524e-86
1.0097e-86
3.88768e-87
-2.0373e-90
3.82433e-91
1.81873e-91
-2.78769e-95
5.54734e-96
3.81776e-96
-9.86607e-101
3.85679e-101
2.48778e-101
4.50297e-38
-2.31285e-36
3.14803e-37
-1.46804e-37
3.74837e-37
3.65261e-39
-7.58646e-37
-5.20876e-37
1.14796e-37
1.34465e-39
-3.62902e-37
-5.32432e-39
1.29285e-40
7.56146e-42
-1.65579e-39
-3.8483e-42
1.47177e-43
6.3553e-45
-1.38376e-42
-5.51512e-45
1.97222e-46
6.00776e-48
-1.26712e-45
-6.45582e-48
1.98292e-49
4.7238e-51
-9.10688e-49
-5.41777e-51
1.46211e-52
1.99113e-54
-3.63622e-52
-3.40004e-54
8.40907e-56
1.4487e-58
-2.68292e-56
-1.87977e-57
4.52134e-59
-3.51508e-61
7.64242e-59
-8.25862e-61
4.07853e-62
-3.2255e-64
7.02315e-62
-2.83514e-64
2.31105e-65
-1.69554e-67
3.65432e-65
-7.89175e-68
9.64218e-69
-6.43244e-71
1.34581e-68
-1.56693e-71
2.57251e-72
-1.58313e-74
3.3831e-72
-2.07611e-75
4.541e-76
-2.67077e-78
5.74654e-76
-1.64253e-79
5.73038e-80
-2.82812e-82
6.64791e-80
-6.59613e-84
2.40513e-84
-1.74504e-86
3.66297e-84
-1.12798e-88
2.72255e-89
-4.23313e-91
8.00751e-89
-5.92662e-94
7.60666e-95
-2.74367e-96
5.11889e-94
8.14565e-35
-5.61936e-33
2.95882e-34
-9.39241e-34
4.06957e-33
1.28472e-34
-1.42431e-32
-6.18502e-33
9.20118e-34
5.51175e-35
-5.56652e-33
-2.90246e-35
7.34188e-37
1.95202e-37
-1.52541e-35
-2.47982e-38
9.51081e-40
1.72797e-40
-1.44429e-38
-3.41139e-41
1.15696e-42
1.55537e-43
-1.26832e-41
-3.61974e-44
1.05618e-45
1.04563e-46
-8.11745e-45
-2.80878e-47
7.16273e-49
4.06654e-50
-3.04459e-48
-1.61256e-50
3.76973e-52
2.7672e-54
-1.89858e-52
-7.43121e-54
3.86216e-55
-7.16807e-57
5.25674e-55
-2.99021e-57
2.62375e-58
-6.1634e-60
4.36148e-58
-9.97775e-61
1.4138e-61
-3.11138e-63
2.1432e-61
-2.50606e-64
5.19628e-65
-1.08321e-66
7.19885e-65
-4.39932e-68
1.21474e-68
-2.57607e-70
1.64278e-68
-5.2699e-72
1.82909e-72
-4.27768e-74
3.09294e-72
-4.17504e-76
1.38466e-76
-4.54314e-78
2.56071e-76
-1.72651e-80
4.37464e-81
-2.21896e-82
1.22373e-80
-3.41178e-85
6.67014e-86
-5.14871e-87
2.71327e-85
-1.54161e-90
1.42526e-91
-2.9331e-92
1.42216e-90
2.90601e-31
-1.31944e-29
1.75147e-31
-2.3478e-30
1.65571e-29
1.2248e-30
-8.66052e-29
-2.87068e-29
2.69191e-30
4.3244e-31
-2.8625e-29
-5.68893e-32
1.53767e-33
9.24276e-34
-4.78787e-32
-5.57266e-35
2.06874e-36
9.07255e-37
-4.52028e-35
-7.08391e-38
2.28661e-39
7.72127e-40
-3.66157e-38
-6.87732e-41
1.95337e-42
4.70453e-43
-2.11677e-41
-5.16834e-44
1.27956e-45
1.72762e-46
-7.54549e-45
-2.88673e-47
1.0228e-48
9.81863e-51
-3.88585e-49
-1.22584e-50
8.5096e-52
-2.82284e-53
1.24094e-51
-4.94281e-54
5.76686e-55
-2.29135e-56
9.93973e-55
-1.57845e-57
3.02342e-58
-1.10471e-59
4.71207e-58
-3.68972e-61
1.01566e-61
-3.61532e-63
1.49514e-61
-6.59229e-65
2.22994e-65
-8.78071e-67
3.78806e-65
-8.87734e-69
2.94902e-69
-1.44005e-70
5.59957e-69
-5.35291e-73
1.36989e-73
-1.06007e-74
3.78179e-73
-2.41328e-77
5.35027e-78
-5.20329e-79
1.84755e-77
-4.24309e-82
7.20342e-83
-1.07669e-83
3.5768e-82
-1.67904e-87
1.33779e-88
-5.21636e-89
1.59982e-87
4.88749e-28
-1.31941e-26
-9.19528e-27
-1.08875e-27
3.36521e-26
5.59602e-27
-3.65282e-25
-7.81328e-26
4.99556e-27
1.75271e-27
-1.21322e-25
-6.90235e-29
1.62187e-30
2.21818e-30
-9.41675e-29
-5.40939e-32
1.84743e-33
1.86247e-33
-6.22292e-32
-6.01972e-35
1.86972e-36
1.38866e-36
-4.0784e-35
-5.45681e-38
1.51741e-39
7.59589e-40
-2.14206e-38
-3.97391e-41
9.92189e-43
2.6268e-43
-7.24035e-42
-2.31825e-44
6.08374e-46
1.20003e-47
-2.84887e-46
-1.00396e-47
6.82329e-49
-4.43008e-50
1.29532e-48
-4.08464e-51
5.2006e-52
-3.54342e-53
1.0393e-51
-1.29457e-54
2.86332e-55
-1.66907e-56
4.89517e-55
-2.94454e-58
9.25669e-59
-5.29242e-60
1.60217e-58
-5.95389e-62
1.89076e-62
-1.30514e-63
3.70226e-62
-7.88913e-66
2.50535e-66
-1.86083e-67
5.21269e-66
-4.41051e-70
9.90129e-71
-1.20771e-71
3.35267e-70
-1.82219e-74
3.70118e-75
-5.6625e-76
1.47758e-74
-2.84901e-79
4.2876e-80
-1.02696e-80
2.52028e-79
-1.03474e-84
5.86543e-86
-4.43577e-86
1.03243e-84
1.9346e-25
-1.0991e-24
-8.45762e-24
3.39989e-24
2.84551e-23
1.98656e-23
-4.901e-22
-6.50105e-23
3.26594e-24
7.2844e-24
-1.23016e-22
-2.70257e-26
4.97661e-28
3.10595e-27
-4.71318e-26
-1.57849e-29
5.49142e-31
1.54361e-30
-2.48824e-29
-1.85363e-32
5.83679e-34
9.27851e-34
-1.78316e-32
-1.70958e-35
4.72809e-37
4.85411e-37
-9.14015e-36
-1.23435e-38
3.12573e-40
1.60999e-40
-2.92703e-39
-7.54375e-42
1.70992e-43
5.04797e-45
-6.12011e-44
-3.69932e-45
1.33543e-46
-3.04951e-47
5.6324e-46
-1.55912e-48
1.47988e-49
-2.47942e-50
4.68567e-49
-5.26273e-52
1.1147e-52
-1.19563e-53
2.33478e-52
-1.28304e-55
3.90458e-56
-3.97198e-57
7.71185e-56
-2.69007e-59
7.70444e-60
-9.0337e-61
1.78508e-59
-3.69055e-63
1.01397e-63
-1.27275e-64
2.62426e-63
-2.51147e-67
5.87609e-68
-8.60501e-69
1.93552e-67
-8.09442e-72
1.41603e-72
-3.41538e-73
6.85464e-72
-1.2829e-76
1.58172e-77
-5.76603e-78
1.18136e-76
-5.1688e-82
2.25386e-83
-2.4484e-83
5.24548e-82
-4.14868e-24
6.38776e-23
-2.32908e-21
-8.1233e-22
2.31012e-21
4.13469e-21
-1.96144e-20
-7.1169e-22
2.43943e-23
4.25153e-22
-6.1161e-22
-4.22745e-25
1.31081e-26
2.46493e-25
-4.55062e-25
-6.01415e-28
3.09055e-29
2.04997e-28
-6.09927e-28
-1.30079e-30
4.25765e-32
2.10108e-31
-7.05576e-31
-1.23126e-33
3.57106e-35
1.04528e-34
-4.13963e-34
-9.74485e-37
2.56565e-38
3.42258e-38
-1.53346e-37
-6.51826e-40
1.58698e-41
3.43911e-43
7.50172e-43
-3.64836e-43
8.1314e-45
-7.50876e-45
5.94216e-44
-1.68751e-46
7.50362e-48
-6.43877e-48
5.31495e-47
-6.21108e-50
9.10873e-51
-3.36677e-51
2.89232e-50
-1.60037e-53
4.14213e-54
-1.12388e-54
1.0267e-53
-3.69964e-57
9.75789e-58
-2.72803e-58
2.70753e-57
-5.74541e-61
1.3764e-61
-4.21876e-62
4.532e-61
-4.50154e-65
1.00201e-65
-3.29903e-66
3.72988e-65
-1.63135e-69
3.00135e-70
-1.12523e-70
1.43173e-69
-2.21524e-74
2.59251e-75
-1.89694e-75
2.13743e-74
-9.10399e-80
3.70379e-81
-8.56663e-81
9.59625e-80
2.04073e-18
-1.29945e-21
-2.06798e-18
-2.73215e-19
5.11684e-20
1.54491e-19
-1.58089e-18
-1.57935e-21
2.38152e-23
9.43298e-22
-2.70524e-21
-1.22685e-24
8.87035e-26
8.09634e-25
-3.25824e-24
-5.6103e-27
3.86205e-28
1.63516e-27
-8.56372e-27
-1.28453e-29
9.19239e-31
1.93113e-30
-1.37231e-29
-2.0784e-32
1.40904e-33
1.46057e-33
-1.28014e-32
-1.93888e-35
1.55416e-36
5.4197e-37
-5.15163e-36
-1.18463e-38
2.29258e-39
-1.63076e-41
1.66898e-40
-5.0806e-42
1.77402e-42
-2.61389e-43
1.2182e-42
-1.6232e-45
4.61765e-46
-2.21772e-46
9.23154e-46
-5.36531e-49
1.15481e-49
-1.19064e-49
3.92934e-49
-1.48585e-52
4.44891e-53
-4.41532e-53
1.24883e-52
-2.8373e-56
9.337e-57
-1.1821e-56
2.71148e-56
-3.73201e-60
1.25212e-60
-2.06215e-60
4.32121e-60
-3.02778e-64
8.5152e-65
-1.70705e-64
3.7804e-64
-1.31332e-68
3.06078e-69
-7.19649e-69
1.70931e-68
-2.36445e-73
4.22613e-74
-1.27118e-73
3.21118e-73
-9.25254e-79
6.94999e-80
-5.78771e-79
1.43272e-78
1.07348e-05
-1.25139e-05
1.77911e-06
-4.79174e-06
7.8606e-06
2.62382e-05
-2.9307e-05
-1.06144e-05
1.32483e-05
2.22111e-05
-2.48451e-05
-1.59192e-05
1.86696e-05
2.09017e-05
-2.36521e-05
-2.14844e-05
2.43424e-05
2.14711e-05
-2.43291e-05
-2.72353e-05
3.01662e-05
2.21762e-05
-2.51072e-05
-3.31439e-05
3.61772e-05
2.28264e-05
-2.58597e-05
-3.92741e-05
4.24406e-05
2.34763e-05
-2.66428e-05
-4.56823e-05
4.90039e-05
2.40965e-05
-2.74181e-05
-5.24092e-05
5.59011e-05
2.45973e-05
-2.80892e-05
-5.94811e-05
6.31483e-05
2.48459e-05
-2.85131e-05
-6.69009e-05
7.07322e-05
2.46756e-05
-2.85069e-05
-7.46327e-05
7.85883e-05
2.38384e-05
-2.77939e-05
-8.25789e-05
8.65809e-05
2.20415e-05
-2.60435e-05
-9.0564e-05
9.44938e-05
1.89223e-05
-2.28521e-05
-9.83305e-05
0.000102025
1.40586e-05
-1.77534e-05
-0.000105517
0.000108732
6.96635e-06
-1.01815e-05
-0.000111581
0.000113953
-2.90184e-06
5.30254e-07
-0.000115743
0.00011682
-1.60754e-05
1.49986e-05
-0.00011704
0.000116245
-3.2966e-05
3.37617e-05
-0.000114249
0.000110889
-5.39041e-05
5.72635e-05
-0.000105971
9.94367e-05
-8.01463e-05
8.66801e-05
-9.09714e-05
8.35329e-05
-0.000117835
0.000125274
1.44197e-05
-1.64466e-05
2.02687e-06
-4.95207e-06
7.74414e-06
3.22453e-05
-3.50373e-05
-1.02487e-05
1.27416e-05
2.74053e-05
-2.98982e-05
-1.53483e-05
1.8058e-05
2.63853e-05
-2.9095e-05
-2.08273e-05
2.36312e-05
2.71655e-05
-2.99693e-05
-2.64677e-05
2.9347e-05
2.80166e-05
-3.08958e-05
-3.22818e-05
3.52841e-05
2.88814e-05
-3.18836e-05
-3.83638e-05
4.15306e-05
2.98135e-05
-3.29802e-05
-4.47937e-05
4.81634e-05
3.07675e-05
-3.41372e-05
-5.16495e-05
5.52621e-05
3.16443e-05
-3.52569e-05
-5.90109e-05
6.29037e-05
3.2294e-05
-3.61868e-05
-6.69484e-05
7.11485e-05
3.252e-05
-3.67201e-05
-7.55038e-05
8.00088e-05
3.2017e-05
-3.6522e-05
-8.46522e-05
8.94211e-05
3.04159e-05
-3.51848e-05
-9.42964e-05
9.92555e-05
2.72781e-05
-3.22371e-05
-0.000104268
0.000109296
2.20894e-05
-2.7117e-05
-0.000114285
0.000119169
1.41901e-05
-1.90744e-05
-0.000123868
0.00012829
2.79451e-06
-7.21647e-06
-0.000132274
0.000135691
-1.28484e-05
9.43153e-06
-0.000138404
0.000140216
-3.33748e-05
3.15629e-05
-0.000140969
0.000140644
-5.89984e-05
5.93232e-05
-0.000139506
0.000138135
-8.95389e-05
9.09098e-05
-0.000137781
0.000138701
-0.000124297
0.000123377
1.85874e-05
-2.08324e-05
2.24496e-06
-5.04507e-06
7.52942e-06
3.7677e-05
-4.01614e-05
-9.80522e-06
1.21813e-05
3.23302e-05
-3.47062e-05
-1.47175e-05
1.73534e-05
3.17726e-05
-3.44085e-05
-2.0034e-05
2.27422e-05
3.27304e-05
-3.54386e-05
-2.54854e-05
2.82789e-05
3.37366e-05
-3.653e-05
-3.11371e-05
3.40727e-05
3.48577e-05
-3.77933e-05
-3.70979e-05
4.02254e-05
3.61334e-05
-3.92609e-05
-4.34691e-05
4.68453e-05
3.7517e-05
-4.08932e-05
-5.03713e-05
5.4066e-05
3.89178e-05
-4.26125e-05
-5.79496e-05
6.2042e-05
4.01855e-05
-4.42779e-05
-6.63646e-05
7.09342e-05
4.11079e-05
-4.56775e-05
-7.57637e-05
8.08595e-05
4.13193e-05
-4.64152e-05
-8.622e-05
9.18387e-05
4.0371e-05
-4.59898e-05
-9.77041e-05
0.000103808
3.77575e-05
-4.38612e-05
-0.000110142
0.000116711
3.28857e-05
-3.94552e-05
-0.000123527
0.000130604
2.49434e-05
-3.20202e-05
-0.000137944
0.000145451
1.29562e-05
-2.04628e-05
-0.0001528
0.000159755
-4.30627e-06
-2.6493e-06
-0.000165964
0.00017069
-2.85086e-05
2.37825e-05
-0.000174478
0.00017655
-5.87754e-05
5.67036e-05
-0.000176552
0.000175318
-9.162e-05
9.28536e-05
-0.000173892
0.00017249
-0.000123392
0.000124794
2.31698e-05
-2.55862e-05
2.41635e-06
-5.04214e-06
7.21793e-06
4.24903e-05
-4.4666e-05
-9.2994e-06
1.15719e-05
3.70298e-05
-3.93023e-05
-1.40149e-05
1.65353e-05
3.6992e-05
-3.95123e-05
-1.90842e-05
2.16581e-05
3.80841e-05
-4.06581e-05
-2.42718e-05
2.69414e-05
3.92665e-05
-4.19362e-05
-2.96808e-05
3.25026e-05
4.06786e-05
-4.35004e-05
-3.54204e-05
3.84497e-05
4.23478e-05
-4.53771e-05
-4.1609e-05
4.49203e-05
4.42479e-05
-4.75591e-05
-4.84085e-05
5.21029e-05
4.63206e-05
-5.0015e-05
-5.60371e-05
6.02486e-05
4.84437e-05
-5.26552e-05
-6.47806e-05
6.96737e-05
5.04166e-05
-5.53098e-05
-7.49652e-05
8.06795e-05
5.18147e-05
-5.7529e-05
-8.68168e-05
9.33523e-05
5.20586e-05
-5.8594e-05
-0.000100256
0.000107541
5.05615e-05
-5.78458e-05
-0.000115261
0.000123692
4.69175e-05
-5.53477e-05
-0.000132769
0.000142066
4.05996e-05
-4.99011e-05
-0.000150653
0.000157577
2.96631e-05
-3.77456e-05
-0.000148152
0.000128749
1.17907e-05
-3.64754e-06
-8.82098e-05
5.11358e-05
-1.98507e-05
3.27673e-07
-5.87332e-05
7.63437e-05
-5.5965e-05
1.44233e-06
-0.000102172
0.000136016
-9.38288e-05
1.25773e-05
-0.000153531
0.000179442
-0.000125586
9.9683e-05
2.80666e-05
-3.05946e-05
2.52805e-06
-4.93297e-06
6.81791e-06
4.66932e-05
-4.85781e-05
-8.74008e-06
1.09072e-05
4.15234e-05
-4.36905e-05
-1.32231e-05
1.55865e-05
4.1959e-05
-4.43224e-05
-1.79667e-05
2.03726e-05
4.31518e-05
-4.55577e-05
-2.28208e-05
2.53249e-05
4.45285e-05
-4.70326e-05
-2.78965e-05
3.05472e-05
4.62442e-05
-4.88949e-05
-3.32913e-05
3.61457e-05
4.83293e-05
-5.11837e-05
-3.91318e-05
4.22763e-05
5.08007e-05
-5.39451e-05
-4.5612e-05
4.91808e-05
5.36634e-05
-5.72322e-05
-5.3032e-05
5.72301e-05
5.68802e-05
-6.10783e-05
-6.18406e-05
6.69228e-05
6.03342e-05
-6.54164e-05
-7.25659e-05
7.88336e-05
6.35595e-05
-6.98272e-05
-8.56645e-05
9.29274e-05
6.55622e-05
-7.28236e-05
-0.000100557
0.000108223
6.56278e-05
-7.32859e-05
-0.00011464
0.000116177
6.39585e-05
-6.45942e-05
-8.14634e-05
2.85898e-05
5.29499e-05
-6.88666e-06
-6.75422e-06
1.31575e-06
5.612e-06
-1.69483e-07
-7.2242e-08
1.25876e-08
5.99643e-08
-1.27642e-09
-9.02047e-09
1.40821e-08
-4.74969e-09
2.49811e-11
-5.99519e-08
2.06933e-07
-1.56794e-07
7.45031e-09
-5.8124e-07
1.49466e-06
-1.06343e-06
1.2033e-07
-3.49487e-06
9.32202e-06
-7.19729e-06
1.18597e-06
3.31532e-05
-3.57253e-05
2.57205e-06
-4.71711e-06
6.34266e-06
5.03286e-05
-5.19542e-05
-8.13201e-06
1.01766e-05
4.57992e-05
-4.78437e-05
-1.23281e-05
1.45003e-05
4.65936e-05
-4.87659e-05
-1.66838e-05
1.88931e-05
4.78682e-05
-5.00775e-05
-2.11421e-05
2.34401e-05
4.94379e-05
-5.1736e-05
-2.57965e-05
2.82219e-05
5.14381e-05
-5.38635e-05
-3.07301e-05
3.33378e-05
5.39215e-05
-5.65292e-05
-3.60662e-05
3.89399e-05
5.69676e-05
-5.98414e-05
-4.19876e-05
4.52366e-05
6.06815e-05
-6.39305e-05
-4.87151e-05
5.2453e-05
6.51598e-05
-6.88977e-05
-5.64356e-05
6.07899e-05
7.03321e-05
-7.46859e-05
-6.59513e-05
7.21384e-05
7.61271e-05
-8.23004e-05
-7.87929e-05
8.35714e-05
7.99699e-05
-8.45731e-05
-7.31503e-05
2.97597e-05
7.54201e-05
-1.39597e-05
-9.86643e-06
1.53108e-06
8.72883e-06
-3.5671e-07
-2.50742e-07
2.95994e-08
2.28242e-07
-6.43273e-09
-4.39176e-09
4.68317e-10
3.96597e-09
-6.48069e-11
-2.21381e-11
1.51716e-12
2.03616e-11
-3.94643e-14
-1.00105e-12
1.74859e-12
-7.71092e-13
2.21655e-14
-2.62043e-11
2.72168e-10
-2.52083e-10
5.51411e-12
-2.03304e-09
1.17929e-08
-1.04926e-08
6.55239e-10
-5.50463e-08
2.10925e-07
-1.80961e-07
2.40001e-08
3.8295e-05
-4.08472e-05
2.55213e-06
-4.40803e-06
5.81643e-06
5.34652e-05
-5.48736e-05
-7.4882e-06
9.387e-06
4.9818e-05
-5.17168e-05
-1.13469e-05
1.3311e-05
5.08347e-05
-5.27988e-05
-1.52856e-05
1.72845e-05
5.21822e-05
-5.41811e-05
-1.93163e-05
2.13864e-05
5.39222e-05
-5.59922e-05
-2.34992e-05
2.56595e-05
5.61647e-05
-5.83249e-05
-2.78683e-05
3.01213e-05
5.8989e-05
-6.1242e-05
-3.24036e-05
3.46905e-05
6.25024e-05
-6.47893e-05
-3.6936e-05
3.9102e-05
6.67899e-05
-6.89556e-05
-4.11766e-05
4.32546e-05
7.19101e-05
-7.39851e-05
-4.55952e-05
4.90899e-05
7.8269e-05
-8.17241e-05
-5.3759e-05
4.6435e-05
8.82991e-05
-6.33111e-05
-1.3132e-05
4.83185e-06
2.34969e-05
-1.02224e-06
-6.96594e-07
1.03092e-07
6.31526e-07
-3.66887e-08
-1.37084e-08
1.53703e-09
1.26286e-08
-5.07997e-10
-1.4443e-10
7.97989e-12
1.37793e-10
-1.52224e-12
-3.54174e-13
1.7188e-14
3.44929e-13
-2.66302e-15
-2.19709e-14
2.76925e-14
2.21241e-17
-2.48213e-15
-3.7919e-14
5.33765e-14
-5.22342e-16
-5.34101e-15
-6.33813e-14
7.38866e-14
-1.89897e-15
-5.49613e-15
-1.18087e-12
2.52654e-11
-2.41732e-11
-8.3817e-14
-3.48458e-10
2.81153e-09
-2.62929e-09
2.02066e-10
4.33635e-05
-4.58214e-05
2.458e-06
-4.02514e-06
5.26349e-06
5.61918e-05
-5.74302e-05
-6.82151e-06
8.55249e-06
5.35359e-05
-5.52669e-05
-1.03006e-05
1.20391e-05
5.46566e-05
-5.63952e-05
-1.37783e-05
1.55214e-05
5.60679e-05
-5.78109e-05
-1.7261e-05
1.89805e-05
5.79239e-05
-5.96433e-05
-2.06568e-05
2.22598e-05
6.02799e-05
-6.18827e-05
-2.3747e-05
2.5065e-05
6.31361e-05
-6.4453e-05
-2.6182e-05
2.71195e-05
6.64445e-05
-6.7378e-05
-2.79863e-05
2.9116e-05
7.02705e-05
-7.13716e-05
-3.12091e-05
3.47044e-05
7.5778e-05
-7.89969e-05
-3.40272e-05
1.5222e-05
8.29798e-05
-1.58685e-05
-7.86188e-06
8.93638e-07
7.45363e-06
-3.67123e-07
-9.39399e-08
1.92935e-08
1.23692e-07
-4.8305e-08
-2.72702e-09
2.74093e-10
3.03052e-09
-5.87162e-10
-1.57922e-11
4.21279e-13
1.54842e-11
-3.6154e-13
-1.54965e-14
7.81724e-15
9.78842e-15
-2.79506e-15
-9.85958e-15
1.41458e-14
3.06365e-15
-5.13176e-15
-1.99443e-14
2.55593e-14
5.69998e-15
-8.68337e-15
-2.94205e-14
3.18939e-14
9.13179e-15
-1.04279e-14
-3.42279e-14
2.62275e-14
8.48538e-15
-1.05566e-14
-3.18846e-14
8.36493e-13
4.41764e-14
-6.38585e-15
-1.34693e-11
2.87683e-11
-5.02685e-12
1.04326e-12
4.82061e-05
-5.05363e-05
2.33332e-06
-3.47289e-06
4.49906e-06
5.85819e-05
-5.96069e-05
-5.86178e-06
7.29549e-06
5.68801e-05
-5.83126e-05
-8.68255e-06
1.00086e-05
5.7968e-05
-5.92923e-05
-1.12772e-05
1.24692e-05
5.93276e-05
-6.05164e-05
-1.35542e-05
1.45016e-05
6.10108e-05
-6.19476e-05
-1.53271e-05
1.60903e-05
6.29729e-05
-6.3714e-05
-1.69202e-05
1.80522e-05
6.51931e-05
-6.62148e-05
-2.00598e-05
2.3112e-05
6.8316e-05
-6.62733e-05
-2.38765e-05
1.82444e-05
7.42233e-05
-2.31472e-05
-6.55405e-06
5.6097e-06
2.75562e-05
-6.08471e-07
-7.67033e-07
1.06066e-07
6.76329e-07
-1.21573e-08
-1.64917e-08
1.01108e-07
9.72332e-08
-1.60333e-07
-1.87218e-07
1.21801e-08
6.32973e-08
-2.06166e-07
-2.26971e-10
2.942e-12
2.68412e-10
-5.86583e-11
-3.25651e-14
5.55028e-15
2.55917e-14
-7.60933e-15
-5.39493e-15
7.14052e-15
4.2095e-15
-5.5475e-15
-1.00032e-14
1.29103e-14
7.04008e-15
-8.17915e-15
-1.52802e-14
1.63976e-14
1.02438e-14
-8.85791e-15
-1.52569e-14
1.55735e-14
9.65333e-15
-7.12532e-15
-1.72943e-14
1.64839e-14
9.86378e-15
-8.59342e-15
-2.24082e-14
4.00081e-14
8.16002e-15
-2.0593e-14
-1.05221e-11
1.65942e-11
-6.87481e-13
-8.37786e-13
5.30625e-05
-4.43082e-05
3.69722e-06
-2.96324e-06
3.39282e-06
6.04133e-05
-6.07196e-05
-4.40656e-06
5.46603e-06
5.94897e-05
-6.0404e-05
-6.53993e-06
7.66226e-06
6.03273e-05
-6.126e-05
-8.89e-06
1.0226e-05
6.14315e-05
-5.6248e-05
-1.15337e-05
1.27212e-05
6.27836e-05
-3.95571e-05
-1.3382e-05
1.2658e-05
6.49625e-05
-1.86041e-05
-9.26508e-06
5.37102e-06
4.51673e-05
-2.89863e-07
-6.39248e-06
1.01116e-06
5.38884e-06
-5.73535e-09
-1.34789e-07
2.38115e-08
1.10985e-07
-9.51928e-11
-3.33837e-09
4.18753e-10
2.96059e-09
-3.35637e-12
-4.57954e-11
4.95963e-12
4.23736e-11
-1.58045e-12
-4.09989e-12
1.96634e-07
3.62308e-07
-4.7903e-07
-2.03028e-07
1.36141e-09
2.53061e-07
-1.37157e-07
-7.98463e-12
8.53112e-14
8.19914e-12
-1.30305e-12
-7.50109e-15
3.36821e-15
5.41185e-15
-4.9569e-15
-4.84017e-15
5.86631e-15
6.52842e-15
-6.77566e-15
-6.45329e-15
5.58536e-15
7.52067e-15
-5.07162e-15
-4.39672e-15
3.51207e-15
5.2797e-15
-2.33823e-15
-3.13485e-15
3.36832e-15
3.86875e-15
-1.55301e-15
-3.94259e-15
6.09782e-15
5.27608e-15
-2.43378e-15
-8.24668e-15
9.26261e-15
4.42094e-15
-5.53075e-15
-9.19515e-14
1.2003e-11
2.26164e-12
-2.87447e-14
-1.04416e-24
5.79961e-24
-1.08361e-25
-7.86962e-07
1.33017e-06
3.24021e-05
1.67405e-22
-1.37085e-06
1.31515e-06
2.73274e-05
3.73543e-20
-1.06689e-06
1.11754e-06
1.90216e-05
2.63073e-18
-7.559e-07
5.86606e-08
6.9724e-07
6.7721e-17
-5.29327e-09
5.43439e-10
4.74983e-09
1.09083e-15
-6.08192e-11
7.01026e-12
5.37972e-11
9.18278e-15
-8.24432e-13
9.43384e-14
6.88604e-13
2.71636e-14
-7.99709e-15
3.05187e-16
2.40942e-15
5.25936e-15
-5.11981e-14
4.4361e-13
2.01749e-12
-2.38237e-12
-1.24147e-12
1.62649e-12
2.55854e-12
-3.80655e-12
-1.17639e-12
9.9258e-13
1.40249e-12
-1.26642e-12
-8.90769e-13
1.31412e-07
5.68392e-07
-5.1797e-07
-2.76174e-08
3.88771e-11
2.06919e-08
-2.9245e-09
-1.85648e-13
6.16115e-15
2.53321e-13
-1.20296e-13
-1.45859e-15
2.39677e-15
4.86016e-15
-4.44752e-15
-2.77488e-15
2.45121e-15
5.96334e-15
-3.9424e-15
-1.3407e-15
7.26488e-16
2.56451e-15
-1.05017e-15
-4.12204e-16
2.81034e-16
8.35209e-16
-2.46203e-16
-2.48923e-16
2.77397e-16
5.28367e-16
-1.78974e-16
-4.47751e-16
1.65227e-15
1.42825e-15
-1.11643e-15
-6.12888e-15
1.54587e-14
7.12252e-15
-1.9696e-14
-1.15791e-13
1.23125e-13
2.8257e-14
-2.93971e-14
-8.7193e-24
9.99382e-24
-6.50135e-26
4.75898e-24
-2.18456e-22
-1.01485e-21
2.25232e-21
4.60861e-21
-7.2554e-20
-2.13542e-19
4.20839e-19
8.34982e-19
-6.15793e-18
-1.41703e-17
2.55115e-17
2.39756e-17
-9.85576e-17
-1.99744e-16
3.56608e-16
4.10807e-16
-1.51244e-15
-2.70837e-15
4.3428e-15
4.52124e-15
-1.05784e-14
-1.75758e-14
2.30164e-14
1.89606e-14
-2.47942e-14
-3.81941e-14
3.46721e-14
1.89937e-14
3.58886e-14
9.58383e-15
-6.43607e-14
-4.52107e-12
2.20711e-11
5.22341e-12
-2.46353e-11
-4.30981e-11
4.34681e-11
5.6711e-12
-1.39176e-11
-9.9932e-12
6.07875e-12
8.70378e-13
2.49503e-12
-6.7214e-12
1.04917e-07
4.36343e-07
-3.67223e-07
-2.47806e-09
3.02874e-12
1.02978e-09
-2.19053e-10
-3.57365e-14
-4.88597e-15
5.45948e-14
-1.1032e-14
-6.80576e-16