/*--------------------------------*- C++ -*----------------------------------*\
| =========                 |                                                 |
| \\      /  F ield         | OpenFOAM: The Open Source CFD Toolbox           |
|  \\    /   O peration     | Version:  v1912                                 |
|   \\  /    A nd           | Website:  www.openfoam.com                      |
|    \\/     M anipulation  |                                                 |
\*---------------------------------------------------------------------------*/
FoamFile
{
    version     2.0;
    format      ascii;
    class       volScalarField;
    location    "0.2";
    object      alpha.water;
}
// * * * * * * * * * * * * * * * * * * * * * * * * * * * * * * * * * * * * * //

dimensions      [0 0 0 0 0 0 0];


internalField   nonuniform List<scalar> 
9072
(
1
1
1
1
1
1
1
1
1
1
1
1
1
1
1
1
1
1
1
1
0.999427
0.517595
0.980014
1
1
1
1
1
1
1
1
1
1
1
1
1
1
1
1
1
1
1
1
1
0.882639
0.982356
1
1
1
1
1
1
1
1
1
1
1
1
1
1
1
1
1
1
1
1
1
0.999994
0.99779
1
1
1
1
1
1
1
1
1
1
1
1
1
1
1
1
1
1
1
1
1
1
0.999997
1
1
1
1
1
1
1
1
1
1
1
1
1
1
1
1
1
1
1
1
1
1
1
1
1
1
1
1
1
1
1
1
1
1
1
1
1
1
1
1
1
1
1
1
1
1
1
1
1
1
1
1
1
1
1
1
1
1
1
1
1
1
1
1
1
1
1
1
1
1
1
1
1
1
1
1
1
1
1
1
1
1
1
1
1
1
1
1
1
1
1
1
1.16273e-35
1.27819e-35
4.8238e-37
2.30875e-39
1.96151e-42
1.82376e-45
1.68926e-48
9.13198e-52
3.7305e-55
1.36216e-58
4.62545e-62
1.13037e-65
2.46877e-69
2.58088e-73
2.49122e-77
1.20329e-81
6.02607e-86
3.76705e-91
5.82559e-97
7.59282e-31
1.32972e-31
5.60123e-32
2.5599e-34
1.81158e-37
2.19968e-40
2.15646e-43
1.55165e-46
8.55035e-50
5.00653e-53
1.73209e-56
4.88029e-60
1.17007e-63
1.61428e-67
1.61891e-71
6.71565e-76
7.43211e-81
5.8775e-86
6.69544e-92
7.64531e-28
1.1911e-27
5.24074e-28
1.46827e-30
1.22974e-33
1.29691e-36
1.08655e-39
6.84051e-43
3.44953e-46
1.36622e-49
4.48892e-53
1.12911e-56
2.00264e-60
2.4554e-64
9.00666e-69
2.85821e-73
8.44108e-78
7.55946e-83
5.49033e-89
1.97703e-24
4.56693e-24
1.72918e-24
2.75867e-27
2.75273e-30
2.61364e-33
1.90723e-36
1.10542e-39
4.99086e-43
1.70479e-46
5.13977e-50
1.13148e-53
1.63883e-57
8.66371e-62
4.86747e-66
2.75582e-70
6.96554e-75
4.44915e-80
-1.59319e-86
2.60213e-21
1.313e-20
4.65292e-21
3.52647e-24
2.82637e-27
2.30486e-30
1.48563e-33
7.84033e-37
3.43056e-40
1.09389e-43
3.24117e-47
5.96776e-51
4.9045e-55
4.54115e-59
3.04897e-63
1.51486e-67
2.42017e-72
3.25862e-78
-7.65214e-83
1.09979e-18
2.012e-17
5.4329e-18
1.78629e-21
1.07936e-24
8.53669e-28
5.21092e-31
2.50774e-34
1.09533e-37
3.83638e-41
1.09192e-44
1.90313e-48
1.45978e-52
1.98664e-56
1.41069e-60
5.30148e-65
7.87618e-70
-9.62423e-75
-8.5128e-80
9.62736e-17
1.31478e-15
6.71075e-17
4.38862e-20
5.71916e-23
7.24465e-26
4.49235e-29
2.33501e-32
1.11911e-35
4.29406e-39
1.38449e-42
2.83902e-46
2.38031e-50
2.70842e-54
2.16958e-58
7.53648e-63
1.02504e-67
7.00159e-73
-2.75409e-79
1.14676e-15
5.82246e-14
1.09942e-16
1.25439e-19
3.53307e-22
4.51973e-25
5.44707e-28
3.23262e-31
1.42503e-34
4.49912e-38
1.28238e-41
3.26878e-45
3.68351e-49
4.35036e-53
2.25754e-57
1.07608e-61
2.0006e-66
6.93084e-72
1.77838e-77
1
1
1
1
1
1
1
1
1
1
1
1
1
1
1
1
1
1
1
1
1
1
1
1
1
1
1
1
1
1
1
1
1
1
1
1
1
1
1
1
1
1
1
1
1
1
1
1
1
1
1
1
1
1
1
1
1
1
1
1
1
1
1
1
0.999999
1
1
1
1
1
1
1
1
1
1
1
1
1
1
1
1
1
1
0.999999
0.999987
0.999906
0.998747
0.88195
0.427321
0.351613
0.576715
1.00011
1
1
1
1
1
1
1
1
1
1
1
1
0.999999
0.999976
0.999757
0.994074
0.529818
0.000238124
4.75546e-06
-6.88486e-07
3.20309e-05
0.000482604
0.00451977
1
1
1
1
1
1
1
1
1
1
1
0.999995
0.99987
0.997491
0.621404
0.000399787
6.21563e-06
1.11121e-07
1.00593e-09
9.73707e-10
1.28481e-08
1.85934e-06
6.98501e-05
1
1
1
1
1
1
1
1
1
0.999997
0.999971
0.999558
0.91702
0.00302415
4.74693e-05
2.86835e-07
3.86828e-09
4.0127e-10
6.46922e-10
1.00713e-09
5.2277e-10
2.66956e-09
4.84866e-07
1
1
1
1
1
0.999999
0.999998
0.999992
0.999962
0.999736
0.997513
0.573152
0.000686337
3.86754e-05
6.31313e-07
-4.75908e-11
3.72715e-10
4.7742e-10
6.76994e-10
7.09646e-10
5.39026e-10
3.03646e-10
7.36214e-08
0.999977
0.999992
0.99999
0.999984
0.999972
0.999924
0.999786
0.999191
0.985891
0.659731
0.0216358
9.80046e-06
8.77569e-05
0.00197877
6.03755e-08
3.64478e-10
3.73578e-10
4.8179e-10
5.08834e-10
3.69637e-10
3.37764e-10
2.81607e-10
2.04434e-07
0.955961
0.999088
0.998839
0.998231
0.982181
0.881622
0.620739
0.208203
3.79565e-06
-4.18751e-07
-5.3061e-08
1.34838e-08
0.00550687
0.00210952
4.11664e-09
2.89322e-10
3.55365e-10
2.88348e-10
1.43771e-10
8.68496e-11
1.0794e-10
1.17386e-10
4.68359e-08
-1.62176e-20
0.13966
0.0885229
0.0245322
-1.29082e-22
-3.57942e-17
-1.27026e-13
-4.64349e-13
-1.74329e-15
2.99872e-10
9.8964e-09
1.35768e-08
0.00479085
7.46764e-05
3.89182e-10
2.50524e-10
2.2456e-10
6.54152e-11
1.60106e-11
8.58043e-12
2.49849e-11
1.61074e-10
3.45979e-10
-1.20067e-19
-1.51788e-17
-2.93388e-15
-1.81098e-13
-2.3466e-12
-2.94746e-11
-1.73578e-10
-3.47875e-10
-2.14719e-12
1.54025e-08
7.04275e-08
1.93775e-08
0.00457553
3.80797e-06
1.98629e-10
1.52456e-10
5.39969e-11
7.32391e-12
9.22266e-13
1.17278e-12
1.62608e-11
3.25656e-10
3.43873e-10
-1.42635e-19
-5.14504e-17
-8.49595e-15
-4.37406e-13
-5.94372e-12
-5.88617e-11
-2.25027e-10
-1.6814e-10
-4.91519e-11
6.68246e-07
2.64284e-05
2.4953e-06
0.000524278
5.47787e-06
2.72326e-10
5.46107e-11
7.07428e-12
4.61325e-13
4.61577e-14
3.97765e-13
1.31672e-11
4.01642e-10
1.03058e-09
-1.91819e-19
-1.24632e-16
-1.69409e-14
-7.03633e-13
-1.00563e-11
-7.10362e-11
-1.40604e-10
-2.60478e-13
1.03951e-09
0.000418103
0.000622644
0.000175806
1.41801e-07
8.65406e-08
1.81459e-10
1.68299e-11
7.85382e-13
1.99541e-14
3.05752e-15
2.35276e-13
1.37627e-11
2.93711e-10
1.06401e-09
-3.34656e-19
-2.3959e-16
-2.7063e-14
-9.22877e-13
-1.16257e-11
-4.99961e-11
-2.04553e-11
9.95352e-10
6.57219e-07
0.000610662
0.000495923
5.68705e-06
3.03467e-05
1.46245e-10
8.73435e-11
5.97319e-12
5.95394e-14
7.83364e-16
7.31965e-16
2.3619e-13
2.00185e-11
4.00299e-10
5.37902e-09
-4.78271e-19
-3.48228e-16
-3.29593e-14
-9.06607e-13
-8.14312e-12
-1.36877e-11
4.96764e-11
1.88794e-10
6.31747e-08
0.000273594
7.68371e-06
9.90823e-06
1.27902e-05
1.36581e-10
1.34555e-11
6.4841e-13
2.73509e-15
3.89825e-17
5.35298e-16
2.4914e-13
1.85927e-11
8.7255e-10
5.23052e-08
-3.00726e-19
-2.84147e-16
-2.24782e-14
-4.70845e-13
-2.53058e-12
1.88508e-12
7.24051e-11
1.11573e-09
5.70676e-07
9.39813e-05
0.000769818
0.000418258
7.10772e-13
3.94233e-11
1.07642e-12
1.70249e-14
9.17282e-17
2.00807e-18
1.04023e-16
5.26545e-14
1.0605e-11
1.11548e-09
1.24825e-07
-6.25462e-20
-9.12812e-17
-6.05045e-15
-9.51238e-14
-2.57222e-13
2.49185e-12
4.61987e-11
1.59926e-09
2.35032e-07
0.000631669
0.0012703
0.00117877
-4.51941e-37
1.68666e-12
2.69999e-13
5.72785e-16
1.55096e-18
2.4853e-20
3.31712e-18
8.88408e-16
4.72915e-13
4.71467e-11
3.68508e-09
-2.00637e-21
-7.81662e-18
-4.31686e-16
-5.06441e-15
-4.7425e-15
3.35849e-14
1.48677e-10
3.79242e-10
8.66645e-11
4.15629e-12
6.11106e-13
2.23304e-33
1.0335e-07
2.26074e-13
1.39411e-14
1.37398e-17
8.91787e-21
1.45934e-22
1.96107e-20
8.95724e-18
1.45729e-15
1.39112e-13
1.05137e-11
-1.49268e-28
0
-2.54594e-32
-1.89744e-28
7.40357e-19
2.33666e-14
2.85519e-12
7.3799e-11
2.90038e-10
2.71777e-11
1.0773e-11
1.24469e-12
-1.37852e-13
3.02835e-15
6.97149e-17
4.91679e-19
1.91203e-24
4.06724e-25
1.31538e-22
2.30856e-20
6.09273e-18
1.01453e-15
8.12834e-14
-8.44757e-30
-7.34516e-28
2.40374e-27
1.11141e-23
2.22618e-20
1.17802e-16
2.30867e-13
7.4731e-12
1.87262e-11
1.73341e-11
2.99617e-12
4.75655e-14
2.06043e-16
5.18301e-18
2.14935e-20
2.8781e-23
5.9437e-29
1.39339e-27
3.02382e-25
1.03675e-22
2.22596e-20
3.6024e-18
4.77733e-16
-8.1135e-35
-1.44061e-29
-5.27324e-28
-1.65492e-24
7.08019e-23
5.40113e-19
1.2327e-14
7.68036e-14
6.29434e-14
3.60854e-14
3.62363e-15
9.44318e-17
-5.97676e-19
-8.32015e-19
-2.5271e-20
8.92145e-34
5.63993e-33
2.31163e-30
6.20424e-28
1.77358e-25
4.14367e-23
7.54809e-21
1.37656e-18
-1.04842e-37
4.84388e-37
4.97148e-33
1.76786e-29
3.10878e-26
5.73505e-23
3.36647e-18
3.61636e-16
1.15941e-15
5.67701e-16
3.16763e-17
-3.27343e-19
-1.43944e-18
-5.60217e-19
-3.92003e-20
4.31393e-53
4.02993e-36
2.16079e-33
7.77433e-31
2.02729e-28
5.15481e-26
1.13809e-23
2.3954e-21
-1.76471e-39
-2.20068e-36
-2.68003e-34
-8.98761e-35
-1.23361e-30
6.18022e-28
4.1268e-24
1.87467e-20
1.77734e-19
2.691e-19
7.441e-21
-1.25991e-19
-1.58219e-19
-7.09838e-20
-6.54364e-21
-5.2271e-35
1.24997e-39
1.07967e-36
5.24596e-34
1.51098e-31
4.08029e-29
1.08555e-26
2.7147e-24
-4.37328e-40
-2.92649e-36
-1.22016e-33
-1.85891e-31
-1.26212e-29
-3.87967e-28
-3.79645e-27
4.3348e-26
2.38891e-24
-7.23209e-23
-5.60644e-22
-1.46793e-21
-1.8559e-21
-1.13366e-21
-1.87866e-22
-2.57355e-33
-9.6302e-44
3.18653e-40
2.03486e-37
7.35567e-35
2.23666e-32
7.03654e-30
1.98835e-27
-2.34621e-43
-1.47231e-37
-5.01875e-35
-6.04296e-33
-3.42221e-31
-1.05139e-29
-1.90613e-28
-2.15048e-27
-1.55901e-26
-7.36066e-26
-2.24506e-25
-4.27891e-25
-4.85854e-25
-3.28801e-25
-1.11282e-25
-6.17687e-33
-1.40033e-40
-1.90824e-41
4.33829e-41
2.17052e-38
8.28828e-36
3.11895e-33
9.12881e-31
-2.22936e-50
-6.60149e-44
-1.94864e-41
-2.17141e-39
-1.21768e-37
-3.95895e-36
-8.09044e-35
-1.0907e-33
-9.9653e-33
-6.23306e-32
-2.65994e-31
-7.77952e-31
-1.72542e-30
-3.51922e-30
-4.16149e-30
-1.63817e-34
-7.09534e-41
-8.14859e-42
6.09319e-45
4.04907e-42
2.06108e-39
9.8492e-37
3.05542e-34
-1.093e-59
-1.61871e-51
-5.20459e-49
-6.18639e-47
-3.63492e-45
-1.22068e-43
-2.55149e-42
-3.50374e-41
-3.2702e-40
-2.11281e-39
-9.47286e-39
-2.90247e-38
-5.89651e-38
-8.00405e-38
-8.43258e-38
-3.62218e-38
-2.31001e-42
-3.6286e-43
-1.7453e-47
4.54409e-46
3.51045e-43
2.24463e-40
8.3112e-38
-1.08402e-71
-1.58372e-61
-6.71541e-59
-1.05541e-56
-8.22087e-55
-3.66724e-53
-1.01897e-51
-1.8572e-50
-2.28921e-49
-1.93474e-48
-1.11987e-47
-4.40486e-47
-1.23801e-46
-3.6957e-46
-1.84506e-45
-8.02975e-45
-1.49126e-44
-4.00232e-45
-3.4743e-49
-2.73037e-48
3.48193e-47
3.50245e-44
1.64962e-41
-2.36515e-77
-1.81956e-70
-1.35917e-67
-3.8824e-65
-5.70765e-63
-5.03139e-61
-2.92392e-59
-1.19683e-57
-3.62891e-56
-8.51251e-55
-1.61873e-53
-2.66192e-52
-4.09139e-51
-5.95763e-50
-7.20103e-49
-5.63738e-48
-1.95371e-47
-1.09978e-47
-4.50829e-52
-1.43784e-50
-3.16326e-50
3.52425e-48
2.32593e-45
-1.86115e-84
-6.46169e-77
-6.96909e-74
-2.86779e-71
-6.05708e-69
-7.64596e-67
-6.34114e-65
-3.69413e-63
-1.59443e-61
-5.37264e-60
-1.51642e-58
-3.99201e-57
-1.0774e-55
-2.82269e-54
-5.91514e-53
-7.8784e-52
-4.84805e-51
-5.77958e-51
-2.67739e-55
-1.28659e-53
-3.64215e-52
-1.30316e-61
2.34244e-49
-1.87634e-92
-4.06144e-84
-6.01673e-81
-3.37751e-78
-9.64249e-76
-1.62385e-73
-1.76307e-71
-1.31052e-69
-7.02634e-68
-2.97073e-66
-1.24449e-64
-6.81609e-63
-4.22987e-61
-2.16521e-59
-7.62965e-58
-1.58587e-56
-1.47524e-55
-2.61158e-55
-8.65352e-59
-5.87377e-57
-2.68564e-55
-5.52423e-54
1.03535e-53
-8.14839e-102
-1.43642e-93
-2.85675e-90
-2.16148e-87
-8.36257e-85
-1.92106e-82
-2.86489e-80
-2.93833e-78
-2.15361e-76
-1.15746e-74
-4.65164e-73
-1.44543e-71
-3.9018e-70
-1.19263e-68
-4.37786e-67
-1.33954e-65
-2.35136e-64
-1.55926e-63
-1.6313e-62
-1.5582e-60
-1.05328e-58
-4.24066e-57
0
-2.07861e-117
-5.50163e-104
-1.1251e-100
-8.65005e-98
-3.35919e-95
-7.65047e-93
-1.11911e-90
-1.13197e-88
-9.13914e-87
-9.05847e-85
-1.49932e-82
-2.66029e-80
-3.72617e-78
-3.77788e-76
-2.64402e-74
-1.289e-72
-7.44435e-71
-1.10053e-68
-1.881e-66
-2.55137e-64
-2.53173e-62
-1.62752e-60
-3.80248e-59
-3.05217e-123
-1.69515e-115
-1.09855e-111
-2.7179e-108
-3.4562e-105
-2.63126e-102
-1.31684e-99
-4.6169e-97
-1.18828e-94
-2.33283e-92
-3.64725e-90
-5.04861e-88
-8.82385e-86
-2.88261e-83
-1.26241e-80
-5.22718e-78
-1.86371e-75
-5.5771e-73
-1.37224e-70
-2.68627e-68
-3.95256e-66
-3.96641e-64
-1.83675e-62
-2.86167e-130
-4.66197e-122
-3.9501e-118
-1.30711e-114
-2.26066e-111
-2.37412e-108
-1.66077e-105
-8.24634e-103
-3.04673e-100
-8.70659e-98
-2.00177e-95
-3.96963e-93
-8.35309e-91
-2.79248e-88
-1.47594e-85
-8.36322e-83
-4.23553e-80
-1.82377e-77
-6.52126e-75
-1.88327e-72
-4.18217e-70
-6.56569e-68
-5.41556e-66
-2.76169e-138
-2.0077e-129
-1.9805e-125
-8.19897e-122
-1.88628e-118
-2.75998e-115
-2.78172e-112
-2.04151e-109
-1.14039e-106
-5.05469e-104
-1.86858e-101
-6.28187e-99
-2.32991e-96
-1.25549e-93
-9.59975e-91
-7.87711e-88
-5.88866e-85
-3.78566e-82
-2.03634e-79
-8.94262e-77
-3.07807e-74
-7.67283e-72
-1.11983e-69
-8.97883e-147
-1.96066e-137
-3.09615e-133
-1.90044e-129
-6.12399e-126
-1.21098e-122
-1.62013e-119
-1.57331e-116
-1.17845e-113
-7.30142e-111
-4.15588e-108
-2.56493e-105
-2.08022e-102
-2.33321e-99
-3.0886e-96
-4.03836e-93
-4.74479e-90
-4.80688e-87
-4.0946e-84
-2.86499e-81
-1.59177e-78
-6.51785e-76
-1.70611e-73
-1.45897e-156
-3.17901e-146
-8.51595e-142
-8.7218e-138
-4.65439e-134
-1.51849e-130
-3.341e-127
-5.30216e-124
-6.39722e-121
-6.2112e-118
-5.37663e-115
-5.26467e-112
-7.98673e-109
-1.77423e-105
-4.31737e-102
-9.82484e-99
-1.97311e-95
-3.40928e-92
-4.96622e-89
-5.9575e-86
-5.70941e-83
-4.09244e-80
-1.99027e-77
-7.27814e-169
-1.65048e-156
-9.44993e-152
-1.93389e-147
-2.02187e-143
-1.28418e-139
-5.49701e-136
-1.70013e-132
-3.99998e-129
-7.5351e-126
-1.25169e-122
-2.40202e-119
-7.81719e-116
-3.74556e-112
-1.85695e-108
-8.3196e-105
-3.2493e-101
-1.08948e-97
-3.08413e-94
-7.19292e-91
-1.33956e-87
-1.88192e-84
-1.84166e-81
-1.0437e-195
-1.09887e-169
-2.03303e-164
-1.11828e-159
-3.03223e-155
-4.95056e-151
-5.42638e-147
-4.29637e-143
-2.61785e-139
-1.3376e-135
-6.88823e-132
-4.96379e-128
-5.55802e-124
-7.35734e-120
-9.3621e-116
-1.06182e-111
-1.04564e-107
-8.8185e-104
-6.26533e-100
-3.65141e-96
-1.68227e-92
-5.79299e-89
-1.38483e-85
0
-4.41924e-190
-7.02703e-184
-2.35922e-178
-3.73332e-173
-3.52707e-168
-2.24017e-163
-1.05302e-158
-4.20636e-154
-1.77736e-149
-9.27909e-145
-5.62656e-140
-3.60356e-135
-2.35011e-130
-1.50175e-125
-8.89891e-121
-4.66276e-116
-2.09156e-111
-7.81345e-107
-2.33865e-102
-5.28047e-98
-8.31427e-94
-8.31847e-90
0.999299
0.000291269
8.59383e-07
2.86756e-12
0.999967
0.992331
0.491794
0.00167681
0.999995
0.999889
0.99858
0.971407
1.00006
0.999858
0.999435
0.998847
0.207159
0.76882
0.998421
0.998065
0.00060513
0.00259546
0.0232914
0.384887
1.09935e-05
3.66797e-05
0.00027925
0.00191588
2.78759e-07
5.51218e-07
1.0119e-05
6.85963e-05
1.27022e-07
1.84111e-07
7.97231e-07
6.13616e-06
1.38529e-07
2.93998e-07
1.2362e-05
1.44523e-05
4.36929e-06
2.40052e-06
0.000202185
0.00261166
1.18149e-06
6.00842e-06
0.00365728
0.0701975
9.44791e-07
1.93928e-05
0.0527962
0.692871
3.95373e-06
0.00011066
0.00395858
0.724198
1.004e-05
0.000171207
0.000249563
0.61414
1.08874e-05
0.00024536
0.00113594
0.0494909
7.51046e-06
0.000121236
0.00105956
0.00736331
2.26596e-07
2.01788e-06
4.64083e-05
0.00029501
8.80313e-10
1.44263e-08
7.7227e-07
2.15867e-06
1.04502e-11
1.07287e-10
2.0164e-09
6.87365e-09
6.50642e-14
1.5421e-12
1.51277e-11
2.18097e-11
1.59841e-16
3.00002e-15
3.80324e-14
3.15224e-13
3.46661e-19
5.81467e-18
5.07513e-17
3.02072e-16
4.00543e-22
6.83329e-21
6.30781e-20
3.62626e-19
3.2133e-25
5.69255e-24
5.38717e-23
3.36534e-22
1.67958e-28
3.3452e-27
3.42481e-26
2.37108e-25
6.79394e-32
1.43902e-30
1.67062e-29
1.21855e-28
1.93875e-35
4.25942e-34
5.31096e-33
4.30798e-32
4.51054e-39
1.02645e-37
1.26038e-36
1.02258e-35
7.9708e-43
2.05324e-41
2.8453e-40
2.60709e-39
1.0344e-46
3.06062e-45
4.8384e-44
5.06177e-43
9.90701e-51
3.42935e-49
6.21563e-48
7.35369e-47
7.11887e-55
2.93152e-53
6.01716e-52
7.95652e-51
2.41321e-59
2.02853e-57
4.6651e-56
6.66957e-55
1.19821e-63
1.20046e-61
3.20988e-60
5.2448e-59
4.67257e-68
5.86456e-66
1.93228e-64
3.84675e-63
1.41731e-72
2.25499e-70
9.08761e-69
2.14757e-67
3.4228e-77
6.92647e-75
3.45328e-73
9.64242e-72
6.78143e-82
1.74313e-79
1.08899e-77
3.64238e-76
1.11604e-86
3.71893e-84
2.99296e-82
1.23262e-80
1.4307e-91
6.53044e-89
7.22008e-87
3.81736e-85
1.21333e-96
8.01628e-94
1.29982e-91
9.21826e-90
5.95141e-15
2.26646e-12
4.5185e-14
3.76845e-17
9.98216e-20
1.80569e-22
1.89588e-25
1.37633e-28
6.69212e-32
1.89242e-35
2.6775e-39
3.52101e-43
7.42161e-47
1.0254e-50
7.8129e-55
2.51058e-59
4.42573e-64
3.5379e-69
-2.30903e-75
3.31836e-08
2.66617e-10
2.12439e-12
5.34669e-14
2.6577e-16
5.11238e-19
5.39158e-22
3.86633e-25
2.21903e-28
1.05448e-31
2.33537e-35
2.07926e-39
3.92803e-43
6.56161e-47
6.01601e-51
2.12989e-55
2.00983e-60
1.25191e-65
-4.75912e-71
0.0902312
8.58201e-07
1.62494e-09
8.28023e-12
3.06316e-13
8.35447e-16
9.27844e-19
6.36781e-22
4.04411e-25
2.52045e-28
8.51552e-32
1.006e-35
1.72537e-39
2.82304e-43
3.14664e-47
1.49264e-51
2.0426e-56
-2.91374e-62
-9.5705e-67
0.994987
0.000491745
6.1995e-07
3.97737e-09
2.26204e-11
4.34041e-13
7.01478e-16
4.68643e-19
3.18209e-22
2.3168e-25
1.17711e-28
2.46907e-32
3.6742e-36
4.91919e-40
6.3199e-44
3.9259e-48
6.98898e-53
-1.23093e-57
-1.71668e-62
0.996375
0.200874
9.71274e-05
5.88943e-07
2.32595e-09
1.15123e-11
1.73252e-13
1.27183e-16
8.64566e-20
6.42589e-23
3.55779e-26
1.62244e-29
2.66869e-33
1.90513e-37
3.14012e-41
1.54264e-45
-5.06161e-50
-5.40142e-54
-5.9127e-59
0.991034
0.730566
0.00137827
1.27082e-05
6.24028e-08
2.96221e-10
2.28318e-12
1.15359e-14
6.90036e-18
5.05554e-21
3.40572e-24
1.60521e-27
4.75556e-31
2.15922e-35
2.63242e-39
2.38152e-43
-6.21614e-48
-7.8094e-52
-9.91036e-57
0.679983
0.925801
0.00459875
5.43322e-05
4.41635e-07
2.51688e-09
1.46049e-11
8.55048e-14
4.49835e-17
2.95992e-20
3.96811e-23
1.9163e-26
6.33639e-30
3.29181e-34
3.47753e-38
2.99014e-42
-1.28502e-46
-1.12042e-50
-1.2197e-55
0.227037
0.877999
0.0192082
0.000136438
1.43314e-06
9.93516e-09
5.41918e-11
2.88421e-13
2.73515e-16
1.11996e-19
1.46825e-22
7.56259e-26
2.17111e-29
2.19761e-33
1.46019e-37
1.31613e-41
-4.17864e-47
-2.3025e-50
-2.77275e-55
0.105719
0.833478
0.0133413
0.000159083
2.10889e-06
1.6694e-08
8.75983e-11
4.93987e-13
7.10235e-16
3.78827e-19
4.36335e-22
2.52603e-25
9.4272e-29
1.65282e-32
9.33448e-37
5.07947e-41
1.89822e-45
8.93645e-51
-6.84871e-56
0.218734
0.737507
0.00400379
9.07479e-05
1.1784e-06
9.42664e-09
5.54647e-11
4.2216e-13
5.84174e-16
3.73815e-19
4.01937e-22
2.47899e-25
1.01011e-28
2.20046e-32
2.01978e-36
1.58063e-40
8.1833e-45
1.39589e-49
4.47622e-55
0.573668
0.497257
0.00152722
2.47332e-05
2.76917e-07
2.11744e-09
1.41621e-11
1.19924e-13
1.34426e-16
1.20634e-19
1.25159e-22
7.82963e-26
3.39295e-29
8.27834e-33
8.58757e-37
7.97707e-41
4.34239e-45
9.49168e-50
5.21645e-55
0.563927
0.026385
0.000261505
1.906e-06
2.13767e-08
1.88593e-10
3.78704e-12
9.72718e-15
1.11229e-17
1.39657e-20
1.4534e-23
9.53106e-27
4.05221e-30
9.0758e-34
9.92193e-38
1.01035e-41
5.44711e-46
1.21592e-50
6.85877e-56
0.35815
0.00129676
1.91199e-05
7.65486e-08
8.99883e-10
1.87022e-11
2.43609e-13
3.92449e-16
5.94318e-19
9.01308e-22
9.17733e-25
5.88208e-28
2.21736e-31
4.02408e-35
5.31269e-39
5.58528e-43
2.92967e-47
6.30239e-52
3.353e-57
0.494439
0.000178298
1.39236e-06
1.19063e-08
9.61936e-11
2.21809e-12
4.08219e-14
3.43533e-17
5.09555e-20
6.32707e-23
5.44879e-26
3.02134e-29
8.0708e-33
1.36368e-36
2.0414e-40
1.96721e-44
9.42611e-49
1.828e-53
8.92175e-59
0.720333
0.0174643
2.34645e-05
1.71865e-07
5.62625e-10
2.84276e-12
3.46872e-14
1.9737e-17
1.67466e-20
1.24879e-23
6.68135e-27
2.64074e-30
4.55844e-34
6.5016e-38
8.29798e-42
6.42965e-46
2.56126e-50
4.13105e-55
1.78567e-60
0.456047
0.0596552
5.30109e-05
2.78128e-07
6.14738e-10
5.33643e-12
2.86783e-14
1.46969e-17
6.26705e-21
2.95198e-24
1.08752e-27
3.02114e-31
3.87075e-35
3.81727e-39
3.3129e-43
1.93154e-47
6.09014e-52
7.80234e-57
2.89917e-62
0.00572569
0.000762339
6.26243e-05
9.54451e-08
1.34138e-10
1.4257e-12
1.31932e-15
5.36816e-19
2.91847e-22
1.30897e-25
4.56512e-29
1.04753e-32
1.15267e-36
1.04858e-40
7.99944e-45
3.80467e-49
9.63982e-54
9.80972e-59
3.25374e-64
0.000168885
3.28022e-05
1.50428e-07
3.5681e-10
9.18947e-12
1.48854e-14
9.61046e-18
5.76534e-21
3.69013e-24
1.72421e-27
5.68636e-31
1.01614e-34
1.12034e-38
1.12559e-42
8.28626e-47
3.54152e-51
7.4655e-56
6.5618e-61
2.14321e-66
2.28282e-06
8.7467e-07
3.6328e-09
4.39703e-12
7.85892e-14
6.01178e-17
5.00071e-20
3.70387e-23
2.42642e-26
1.07582e-29
2.58217e-33
4.24186e-37
5.4885e-41
6.07096e-45
4.17515e-49
1.55038e-53
2.74485e-58
2.41406e-63
8.19488e-69
1.77048e-08
9.90341e-09
6.3102e-11
8.75902e-14
2.92643e-16
2.99678e-19
3.75185e-22
2.55983e-25
1.13334e-28
3.06718e-32
6.31484e-36
1.15337e-39
1.75204e-43
1.83642e-47
1.06786e-51
3.23479e-56
5.51163e-61
5.69049e-66
1.91225e-71
8.22315e-11
5.79507e-11
6.09347e-13
4.82817e-16
8.18866e-19
2.07575e-21
2.42345e-24
1.0843e-27
3.25446e-31
7.40251e-35
1.67621e-38
3.36464e-42
4.30737e-46
3.31628e-50
1.41579e-54
4.03118e-59
8.48015e-64
9.55156e-69
2.87813e-74
7.60649e-13
1.47315e-13
1.51281e-15
1.81932e-18
4.80181e-21
1.16948e-23
8.0485e-27
2.26905e-30
5.62277e-34
1.90895e-37
5.12485e-41
8.40148e-45
7.5282e-49
4.25975e-53
1.75115e-57
6.1497e-62
1.38834e-66
1.35128e-71
3.52589e-77
8.99413e-16
1.38555e-16
1.31946e-18
1.94722e-21
2.18214e-23
2.07534e-26
5.26037e-30
1.77032e-33
1.37913e-36
5.43053e-40
1.08062e-43
1.23235e-47
8.25178e-52
5.24272e-56
2.87301e-60
1.04264e-64
1.9741e-69
1.63184e-74
3.94558e-80
9.61711e-19
2.34404e-19
3.86875e-21
8.54814e-24
4.72844e-26
2.2807e-29
7.92493e-33
6.09496e-36
3.75426e-39
8.92889e-43
1.13715e-46
1.1861e-50
1.07396e-54
9.49872e-59
5.02336e-63
1.43818e-67
2.24537e-72
1.72828e-77
4.55142e-83
1.01726e-21
2.70136e-22
6.51427e-24
1.60264e-26
3.54661e-29
4.07495e-32
2.13101e-35
1.88021e-38
4.66504e-42
7.00688e-46
1.01493e-49
1.73125e-53
2.12572e-57
1.65068e-61
6.93768e-66
1.59809e-70
2.34302e-75
2.04044e-80
5.95798e-86
7.74783e-25
2.14414e-25
6.66177e-27
1.1091e-29
5.50081e-32
8.30102e-35
5.06208e-38
1.78401e-41
3.39012e-45
5.25517e-49
1.84477e-52
3.11378e-56
3.15397e-60
1.86159e-64
6.60193e-69
1.5612e-73
2.76969e-78
2.69216e-83
7.26451e-89
3.76567e-28
1.17888e-28
3.7983e-30
8.30069e-33
7.50882e-35
1.09234e-37
6.23003e-41
1.73956e-44
3.84241e-48
9.51684e-52
2.81652e-55
3.89366e-59
2.82075e-63
1.37524e-67
5.2141e-72
1.66893e-76
3.35528e-81
2.91499e-86
6.93254e-92
1.12786e-31
4.14935e-32
1.45803e-33
5.4121e-36
7.32906e-38
6.77529e-41
3.04767e-44
1.44482e-47
4.65558e-51
1.18333e-54
2.43321e-58
2.43608e-62
1.68842e-66
1.15851e-70
6.04852e-75
2.00706e-79
3.43704e-84
2.55738e-89
5.90779e-95
2.6588e-35
1.39851e-35
7.51189e-37
3.75512e-39
4.14219e-41
4.26746e-44
2.81963e-47
1.73378e-50
5.80651e-54
1.15527e-57
1.22343e-61
8.86369e-66
1.38918e-69
1.36153e-73
7.02422e-78
1.88863e-82
2.7411e-87
2.02502e-92
5.19792e-98
7.31953e-39
4.61219e-39
3.6844e-40
2.25054e-42
1.66185e-44
3.23254e-47
2.77863e-50
1.6499e-53
4.30684e-57
7.57508e-61
7.85173e-65
1.05404e-68
1.8739e-72
1.50539e-76
5.95064e-81
1.34765e-85
2.0059e-90
1.70836e-95
4.94317e-101
1.55648e-42
1.73569e-42
1.2351e-43
8.32142e-46
1.03558e-47
2.27223e-50
2.13094e-53
9.34217e-57
2.2968e-60
4.31731e-64
7.13307e-68
1.5063e-71
1.77134e-75
1.00583e-79
3.52627e-84
9.04607e-89
1.66472e-93
1.59267e-98
4.41673e-104
2.44691e-46
3.8312e-46
2.99811e-47
2.49313e-49
5.20287e-51
1.12174e-53
9.89974e-57
4.21256e-60
1.45929e-63
3.36608e-67
6.74128e-71
9.98285e-75
7.87333e-79
4.34053e-83
1.97811e-87
7.03398e-92
1.46234e-96
1.2816e-101
3.10733e-107
3.04187e-50
5.96833e-50
5.82937e-51
8.45697e-53
1.96749e-54
3.86904e-57
2.90555e-60
2.12215e-63
9.6306e-67
2.62535e-70
4.17436e-74
3.94185e-78
2.47738e-82
2.44749e-86
1.57109e-90
5.86197e-95
1.05511e-99
7.86453e-105
1.86688e-110
3.08508e-54
8.78724e-54
1.06932e-54
2.55682e-56
5.24859e-58
1.1647e-60
1.30758e-63
1.21499e-66
5.60845e-70
1.35308e-73
1.78494e-77
1.6839e-81
1.76556e-85
2.19995e-89
1.28959e-93
3.81544e-98
5.80685e-103
4.40257e-108
1.19306e-113
3.06635e-58
1.27375e-57
1.92383e-58
6.23798e-60
1.33198e-61
4.69127e-64
6.44253e-67
5.62182e-70
2.24369e-73
5.23424e-77
8.29475e-81
9.48624e-85
1.90543e-88
1.69792e-92
7.31321e-97
1.8576e-101
3.03619e-106
2.71335e-111
8.22474e-117
2.94314e-62
1.69446e-61
3.0094e-62
1.29372e-63
3.47403e-65
1.75405e-67
2.5712e-70
1.86641e-73
7.54109e-77
2.17558e-80
4.32827e-84
1.0452e-87
1.32916e-91
8.05964e-96
3.04291e-100
9.21815e-105
1.87587e-109
1.83986e-114
5.37664e-120
2.12076e-66
2.04009e-65
3.79027e-66
2.34622e-67
9.27609e-69
5.34522e-71
7.74433e-74
5.95697e-77
3.00482e-80
1.07679e-83
2.71693e-87
5.27615e-91
4.39067e-95
2.68674e-99
1.41108e-103
5.66579e-108
1.2468e-112
1.1204e-117
2.85207e-123
1.22237e-70
1.86981e-69
4.13264e-70
4.10242e-71
2.14003e-72
1.26765e-74
1.85363e-77
2.06546e-80
1.24842e-83
4.70792e-87
1.11858e-90
1.30212e-94
1.1323e-98
1.24345e-102
9.04238e-107
3.66393e-111
7.00031e-116
5.33075e-121
1.29177e-126
6.04945e-75
1.41711e-73
4.28804e-74
6.82688e-75
4.09972e-76
2.57201e-78
5.52397e-81
7.37341e-84
4.74824e-87
1.87306e-90
3.21599e-94
4.40852e-98
6.77414e-102
8.37331e-106
5.55663e-110
1.84174e-114
2.98026e-119
2.26279e-124
6.26489e-130
2.83257e-79
9.96251e-78
6.12779e-78
1.35088e-78
6.97115e-80
6.04939e-82
1.77589e-84
2.67207e-87
1.77391e-90
6.04856e-94
1.29836e-97
2.77015e-101
5.57779e-105
5.23334e-109
2.45315e-113
7.04195e-118
1.21237e-122
1.09291e-127
3.42004e-133
1.24045e-83
7.01152e-82
8.13132e-82
2.13573e-82
1.22161e-83
1.71099e-85
7.00333e-88
8.9725e-91
5.42257e-94
2.24706e-97
7.07732e-101
1.9989e-104
3.1776e-108
2.19701e-112
9.18519e-117
3.02289e-121
6.31467e-126
6.09368e-131
1.80091e-136
4.16827e-88
4.21564e-86
8.495e-86
3.03335e-86
3.29127e-87
5.51896e-89
2.06607e-91
2.62016e-94
1.85281e-97
9.91898e-101
3.63042e-104
1.00516e-107
1.0536e-111
7.20118e-116
3.89602e-120
1.60792e-124
3.53328e-129
3.10083e-134
7.95643e-140
1
1
1
1
1
1
1
1
1
1
1
1
1
1
1
1
1
1
1
1
0.756044
0.557975
0.988635
1
1
1
1
1
1
1
1
1
1
1
1
1
1
1
1
1
1
1
1
0.999997
0.626504
0.995924
1
1
1
1
1
1
1
1
1
1
1
1
1
1
1
1
1
1
1
1
1
0.999606
0.997515
1
1
1
1
1
1
1
1
1
1
1
1
1
1
1
1
1
1
1
1
1
0.999994
0.999985
1
1
1
1
1
1
1
1
1
1
1
1
1
1
1
1
1
1
1
1
1
1
0.993129
1
1
1
1
1
1
1
1
1
1
1
1
1
1
1
1
1
1
1
1
1
1
0.990909
1
1
1
1
1
1
1
1
1
1
1
1
1
1
1
1
1
1
1
1
1
1
0.990918
1
1
1
1
1
1
1
1
1
1
1
1
1
1
1
1
1
1
1
1
1
1
0.991094
4.52005e-36
3.72156e-36
4.35007e-38
6.36348e-41
5.63475e-44
5.01512e-47
3.4382e-50
1.20332e-53
1.6721e-57
1.8562e-61
4.87293e-65
1.0437e-68
1.48388e-72
1.63192e-76
1.20497e-80
5.40553e-85
1.03664e-89
5.70728e-95
4.30435e-97
8.1348e-32
1.23508e-31
6.89615e-33
5.76493e-36
6.21486e-39
6.82482e-42
5.29682e-45
2.94808e-48
1.40502e-51
3.32335e-55
8.6967e-60
2.8698e-63
7.72471e-67
1.43866e-70
1.82782e-74
1.25388e-78
2.71961e-83
1.83754e-88
1.03001e-93
4.45589e-28
1.29443e-27
4.73556e-29
3.75644e-32
4.0061e-35
3.78795e-38
2.55588e-41
1.10195e-44
2.25088e-48
1.92126e-52
7.8168e-56
2.47083e-59
5.05952e-63
6.89428e-67
5.60267e-71
2.47905e-75
5.35612e-80
3.04399e-85
5.22844e-90
1.36431e-24
5.10687e-24
1.04932e-25
8.15833e-29
8.67282e-32
7.14985e-35
4.56636e-38
1.8131e-41
9.67304e-46
4.04026e-49
1.41096e-52
3.74932e-56
6.94455e-60
8.37594e-64
5.69849e-68
2.60387e-72
5.02026e-77
2.46792e-82
5.18035e-87
2.63456e-21
1.91811e-20
1.8054e-22
9.42178e-26
8.20261e-29
5.92842e-32
3.44712e-35
1.55109e-38
9.82149e-43
3.32143e-46
1.1608e-49
2.94533e-53
5.31071e-57
6.1763e-61
3.71219e-65
1.59792e-69
2.7637e-74
1.23879e-79
3.13942e-84
2.88139e-18
2.88141e-17
1.38225e-19
3.88984e-23
3.0993e-26
2.1618e-29
1.15458e-32
5.28724e-36
1.31174e-39
1.24752e-43
4.53575e-47
1.19235e-50
2.19029e-54
2.6429e-58
1.73896e-62
6.01005e-67
1.04517e-71
5.0004e-77
1.74846e-81
4.96672e-16
6.45762e-16
1.91809e-18
1.37443e-21
2.30286e-24
1.8267e-27
1.05874e-30
5.13604e-34
1.99718e-37
4.52357e-41
5.14304e-45
1.5029e-48
3.05492e-52
4.02835e-56
3.04379e-60
1.12331e-64
1.6908e-69
8.16968e-75
5.45952e-79
6.19756e-14
5.5305e-15
2.40514e-18
4.38815e-21
2.33919e-24
2.14008e-27
1.49569e-30
8.81208e-34
4.06097e-37
1.44292e-40
4.88651e-44
1.41226e-47
2.82571e-51
3.773e-55
3.0332e-59
1.36621e-63
2.68408e-68
1.29676e-73
3.89833e-77
1
1
1
1
1
1
1
1
1
1
1
1
1
1
1
1
1
1
1
1
1
1
0.991715
1
1
1
1
1
1
1
1
1
1
1
1
1
1
1
1
1
1
1
1
1
1
1
1
1
1
1
1
1
1
1
1
1
1
1
1
1
1
1
1
1
1
1
1
1
1
1
1
1
1
1
1
1
1
1
1
1
1
1
1
0.999995
0.999965
0.999748
0.95037
0.735349
0.308747
0.440392
0.825633
1.00001
1
1
1
1
1
1
1
1
1
1
1
1
0.999995
0.999926
0.999015
0.860955
0.0320279
3.64738e-05
3.2766e-07
2.83809e-06
0.000141234
0.00149143
0.0710792
1
1
1
1
1
1
1
1
1
1
0.999999
0.999975
0.999421
0.931863
0.0803993
5.38819e-05
1.04821e-06
8.76328e-09
7.77926e-10
1.20567e-09
1.94998e-07
1.33588e-05
0.000311596
1
1
1
1
1
1
1
1
0.999999
0.999992
0.999895
0.997812
0.461217
0.000318569
7.23939e-06
2.80051e-08
-9.76785e-10
5.57132e-10
7.45565e-10
1.03879e-09
2.91228e-10
3.60674e-08
4.81853e-06
1
1
1
1
1
0.999999
0.999996
0.999982
0.999901
0.99925
0.929818
0.0856322
0.000248327
4.98678e-06
5.78228e-09
4.11059e-10
4.15248e-10
5.78154e-10
7.23854e-10
6.9862e-10
2.98979e-10
6.49801e-08
1.04367e-07
0.999987
0.999992
0.999988
0.99998
0.999955
0.999871
0.999621
0.998294
0.893774
0.311016
6.39005e-05
9.56442e-07
0.00353259
4.46571e-05
1.11032e-09
3.39728e-10
4.2659e-10
5.24713e-10
4.42784e-10
3.72627e-10
2.75984e-10
1.26576e-07
1.25251e-07
0.998717
0.999017
0.998582
0.995566
0.947567
0.775608
0.404304
0.0529241
5.12776e-07
-5.26795e-09
-1.07274e-09
1.34763e-08
0.00595321
3.79234e-07
3.48265e-10
3.31567e-10
3.46597e-10
2.0871e-10
1.05113e-10
8.81478e-11
1.43281e-10
1.18858e-10
2.09623e-07
0.101117
0.118227
0.0565743
-5.2567e-18
-2.1864e-19
-1.5155e-14
-1.29888e-12
-4.2588e-14
-9.88302e-12
2.92994e-09
1.41325e-08
1.35078e-08
0.00357836
1.20659e-08
2.47776e-10
2.58856e-10
1.31932e-10
3.09825e-11
1.03773e-11
1.02614e-11
8.05425e-11
8.44733e-10
1.31061e-06
-7.31662e-19
-2.33453e-16
-2.82651e-14
-6.31879e-13
-8.82662e-12
-8.04655e-11
-2.87818e-10
-2.45448e-10
-1.65466e-10
5.1143e-08
4.13324e-08
1.43493e-08
0.00254237
2.3294e-09
1.85297e-10
1.06036e-10
2.08823e-11
2.37537e-12
6.08699e-13
2.39137e-12
7.02928e-11
3.36719e-10
1.09919e-06
-2.40679e-18
-7.57337e-16
-7.31181e-14
-1.59635e-12
-2.05442e-11
-1.32717e-10
-2.67176e-10
-5.21614e-13
-7.29504e-10
2.56338e-06
1.12076e-05
5.35163e-08
0.00047916
3.42663e-10
1.2015e-10
2.47041e-11
1.87651e-12
1.11881e-13
6.23142e-14
1.166e-12
5.25907e-11
2.09532e-09
8.97245e-07
-5.86623e-18
-1.70833e-15
-1.27174e-13
-2.77742e-12
-3.03161e-11
-1.22464e-10
-7.04982e-11
3.06843e-11
6.07493e-08
0.000621815
0.000621815
4.58407e-07
5.85343e-06
1.87251e-10
3.16214e-11
4.20505e-12
1.23579e-13
4.74983e-15
1.70407e-14
1.46556e-12