/*--------------------------------*- C++ -*----------------------------------*\
| =========                 |                                                 |
| \\      /  F ield         | OpenFOAM: The Open Source CFD Toolbox           |
|  \\    /   O peration     | Version:  v1912                                 |
|   \\  /    A nd           | Website:  www.openfoam.com                      |
|    \\/     M anipulation  |                                                 |
\*---------------------------------------------------------------------------*/
FoamFile
{
    version     2.0;
    format      ascii;
    class       volScalarField;
    location    "0.2";
    object      p;
}
// * * * * * * * * * * * * * * * * * * * * * * * * * * * * * * * * * * * * * //

dimensions      [1 -1 -2 0 0 0 0];


internalField   nonuniform List<scalar> 
9072
(
2101.33
2134.71
2133.89
2131.47
2129.3
2127.34
2125.29
2123.17
2121.19
2119.88
2120.11
2123.35
2131.85
2148.9
2178.99
2227.98
2303.72
2413.7
2564.09
2742.78
2869.66
2876.17
2849.6
2040.45
2074.59
2073.76
2071.36
2069.19
2067.18
2065.05
2062.82
2060.72
2059.23
2059.25
2062.21
2070.34
2086.92
2116.4
2164.45
2237.54
2342.34
2481.5
2644.16
2789.53
2828.94
2687.63
1977.96
2012.8
2011.95
2009.59
2007.4
2005.27
2002.96
2000.49
1998.08
1996.2
1995.71
1998.01
2005.3
2020.79
2048.86
2095.04
2165.42
2265.31
2394.99
2540.15
2665.71
2727.05
2752.53
1913.91
1949.38
1948.49
1946.18
1943.95
1941.63
1939.03
1936.18
1933.28
1930.79
1929.5
1930.76
1936.71
1950.47
1976.34
2019.65
2086.16
2180.28
2301.33
2436.77
2560.42
2660.49
2818.87
1848.34
1884.38
1883.41
1881.16
1878.85
1876.27
1873.27
1869.9
1866.35
1863
1860.61
1860.43
1864.52
1875.88
1898.69
1938.14
1999.67
2087.25
2200.09
2328.08
2453.65
2574.43
2753.44
1781.32
1817.85
1816.78
1814.59
1812.15
1809.21
1805.71
1801.68
1797.28
1792.84
1789.03
1787
1788.66
1796.91
1815.77
1850.27
1905.7
1985.83
2090.28
2211.12
2335.44
2461.44
2610.94
1712.92
1749.86
1748.68
1746.51
1743.87
1740.49
1736.37
1731.53
1726.1
1720.32
1714.76
1710.44
1709.1
1713.46
1727.37
1755.75
1803.8
1875.33
1970.47
2082.71
2199.82
2311.56
2402.2
1643.22
1680.5
1679.18
1676.97
1674.06
1670.16
1665.29
1659.5
1652.83
1645.45
1637.8
1630.72
1625.74
1625.35
1633.22
1654.12
1693.25
1754.65
1838.92
1940.08
2043.18
2120.95
2104.45
5.22745
5.26077
5.26854
5.2797
5.29258
5.30469
5.31354
5.31751
5.31593
5.30898
5.29751
5.28275
5.26608
5.2489
5.23243
5.21774
5.20572
5.19703
5.1921
5.16723
5.20109
5.20897
5.22042
5.23371
5.24618
5.25529
5.25937
5.25777
5.25072
5.23908
5.22412
5.20727
5.18993
5.17332
5.15851
5.14641
5.13766
5.13269
5.10604
5.1404
5.14853
5.16062
5.17487
5.18824
5.19795
5.20226
5.2006
5.19326
5.18119
5.16577
5.14848
5.13074
5.11378
5.0987
5.08638
5.07748
5.07243
5.04392
5.07857
5.08698
5.1002
5.11607
5.13091
5.14158
5.14627
5.14447
5.13663
5.12385
5.10768
5.08969
5.0713
5.05381
5.0383
5.02564
5.01649
5.0113
4.98093
5.0156
5.02431
5.03909
5.05729
5.07423
5.08626
5.09146
5.08942
5.08083
5.06709
5.04988
5.03089
5.01161
4.99338
4.97728
4.96416
4.95468
4.9493
4.91693
4.95062
4.95979
4.97712
4.99854
5.0183
5.0321
5.03791
5.03551
5.02594
5.01094
4.99238
4.97207
4.95165
4.93247
4.9156
4.90191
4.89202
4.8864
4.85291
4.88387
4.89333
4.91417
4.93987
4.96328
4.97928
4.98574
4.98282
4.97201
4.95542
4.93517
4.91325
4.8914
4.87104
4.85323
4.83883
4.82846
4.82258
4.79087
4.81509
4.82436
4.84993
4.88138
4.90945
4.92806
4.93517
4.93147
4.91908
4.90051
4.87822
4.85439
4.83084
4.80904
4.79011
4.77488
4.76397
4.75779
1511.53
1589.77
1588.23
1585.94
1582.56
1577.85
1571.89
1564.66
1556.15
1546.4
1535.63
1524.42
1513.94
1506.3
1504.83
1514.09
1539.21
1584.63
1651.75
1734.51
1811.86
1826.16
1575.01
1355.11
1434.8
1432.79
1429.95
1425.4
1418.97
1410.69
1400.47
1388.07
1373.26
1355.81
1335.64
1313.03
1289.11
1266.35
1248.7
1241.16
1248.92
1275.69
1317.81
1351.18
1297.63
1015.85
1194.75
1275.3
1272.67
1268.87
1262.71
1254.07
1242.91
1228.93
1211.68
1190.54
1164.67
1133.02
1094.51
1048.54
995.982
939.361
882.474
831.38
790.847
768.223
797.82
779.892
631.408
1031.37
1112.24
1108.81
1103.64
1095.48
1084.21
1069.6
1051.16
1028.13
999.422
963.441
917.848
859.463
784.794
692.125
581.615
446.665
270.531
34.5944
7.51366
11.0344
52.9297
164.35
865.906
946.615
942.225
935.377
924.92
910.663
892.153
868.647
839.058
801.742
754.164
692.354
610.095
499.346
358.466
173.924
15.0617
-7.54215
-8.21111
-8.36745
-8.52032
-8.51702
-6.85993
699.372
779.481
774.032
765.336
752.434
734.985
712.307
683.374
646.724
600.109
539.839
459.973
351.996
194.064
29.6093
-6.79142
-7.83132
-8.17165
-8.45969
-8.7122
-8.95935
-9.26599
-9.71607
532.779
611.922
605.391
594.843
579.506
558.88
532.069
497.706
454.003
398.297
325.96
228.525
83.0026
-4.25934
-7.30762
-7.82347
-8.11989
-8.39176
-8.65195
-8.93106
-9.24671
-9.64819
-10.2079
367.136
445.095
437.56
425.334
407.697
384.12
353.614
314.244
264.217
201.614
117.477
10.6446
-6.39034
-7.43958
-7.81781
-8.06687
-8.28662
-8.5378
-8.82895
-9.15923
-9.5414
-10.0103
-10.5936
203.437
279.529
271.365
257.998
238.19
212.419
180.332
135.828
79.1822
27.3239
-5.72298
-5.54457
-5.87645
-7.80682
-8.03634
-8.17878
-8.3947
-8.6658
-8.98785
-9.36321
-9.79555
-10.2757
-10.7353
48.3597
118.997
108.788
95.1931
73.2532
45.8057
26.957
0.643862
-6.16693
-6.2493
-6.0376
-5.97027
-5.99771
-7.81281
-8.04239
-8.22439
-8.46214
-8.75662
-9.11137
-9.532
-10.0231
-10.5793
-11.1691
-4.93448
-0.513105
-2.19939
-4.52542
-4.88199
-5.33038
-5.56954
-5.70112
-6.05659
-6.27314
-6.27013
-6.25881
-6.45789
-7.87552
-8.01059
-8.21904
-8.48039
-8.79963
-9.18763
-9.65685
-10.2237
-10.9141
-11.803
-5.05672
-5.00495
-5.07511
-5.15653
-5.22256
-5.40565
-5.63264
-5.86965
-6.17422
-6.44849
-6.57081
-6.58418
-6.69434
-7.78089
-7.93583
-8.16898
-8.44802
-8.78808
-9.20527
-9.71954
-10.36
-11.1742
-12.2642
-5.18627
-5.14063
-5.19044
-5.26244
-5.36139
-5.51506
-5.72695
-6.00852
-6.39824
-6.83654
-7.10809
-7.15339
-7.23758
-7.60448
-7.80785
-8.07634
-8.36504
-8.71631
-9.15194
-9.6972
-10.3934
-11.2926
-12.4721
-5.29436
-5.26113
-5.30349
-5.37162
-5.47113
-5.61608
-5.82531
-6.13982
-6.68455
-7.38098
-7.86821
-7.72264
-7.40464
-7.50784
-7.70559
-7.95041
-8.23407
-8.58157
-9.01667
-9.57135
-10.2986
-11.2558
-12.5236
-5.38408
-5.3608
-5.39924
-5.46243
-5.55655
-5.693
-5.89229
-6.21624
-6.83049
-7.57509
-7.96933
-7.82528
-7.54525
-7.47098
-7.60052
-7.80086
-8.05958
-8.38302
-8.79209
-9.32317
-10.0392
-11.0431
-12.4839
-5.45593
-5.43938
-5.47465
-5.5326
-5.61806
-5.74101
-5.91982
-6.20989
-6.74127
-7.2032
-7.5068
-7.53052
-7.39844
-7.35683
-7.45348
-7.62109
-7.84379
-8.12419
-8.47849
-8.94029
-9.57438
-10.5146
-12.0614
-5.50912
-5.49901
-5.53073
-5.58171
-5.65606
-5.76204
-5.91202
-6.14273
-6.5701
-6.96795
-7.15346
-7.18407
-7.14885
-7.17739
-7.26908
-7.40931
-7.59036
-7.81354
-8.0881
-8.43617
-8.9005
-9.5705
-10.6701
-5.54702
-5.54176
-5.56917
-5.61259
-5.67502
-5.76157
-5.87862
-6.03624
-6.29457
-6.65272
-6.85911
-6.83093
-6.88966
-6.96196
-7.05475
-7.17082
-7.30824
-7.46709
-7.64914
-7.86018
-8.10925
-8.40407
-8.75529
-5.57294
-5.57116
-5.59388
-5.63035
-5.68196
-5.75103
-5.84061
-5.9521
-6.09187
-6.25336
-6.40606
-6.52218
-6.63398
-6.73514
-6.82593
-6.91767
-7.0119
-7.1068
-7.19826
-7.27888
-7.33273
-7.32164
-7.16515
-5.58942
-5.59012
-5.60921
-5.63975
-5.68201
-5.73687
-5.80571
-5.8898
-5.98968
-6.10025
-6.21606
-6.32874
-6.43516
-6.52477
-6.6002
-6.6646
-6.71739
-6.7549
-6.76913
-6.74553
-6.65842
-6.46245
-6.08029
-5.59999
-5.60213
-5.618
-5.64308
-5.67749
-5.72135
-5.77534
-5.84056
-5.91703
-6.00234
-6.09261
-6.18207
-6.26479
-6.33382
-6.3872
-6.42341
-6.43903
-6.42905
-6.38424
-6.28838
-6.1168
-5.83402
-5.39229
-5.60604
-5.60894
-5.62182
-5.64225
-5.67011
-5.70532
-5.7481
-5.79901
-5.85801
-5.92324
-5.99108
-6.05703
-6.11604
-6.16259
-6.19247
-6.20209
-6.18693
-6.14081
-6.05471
-5.91472
-5.70194
-5.39325
-4.96488
-5.60912
-5.61228
-5.62261
-5.63893
-5.66121
-5.6893
-5.72301
-5.7622
-5.80636
-5.854
-5.90231
-5.94758
-5.98541
-6.0108
-6.01894
-6.00569
-5.96654
-5.89521
-5.78332
-5.62043
-5.39411
-5.09119
-4.7024
-5.60996
-5.61323
-5.62133
-5.63412
-5.65155
-5.67339
-5.69912
-5.72798
-5.75916
-5.79167
-5.82354
-5.85144
-5.87113
-5.87812
-5.86808
-5.83689
-5.78016
-5.69237
-5.56673
-5.39581
-5.17216
-4.88944
-4.54523
-5.60953
-5.61248
-5.61863
-5.62828
-5.6413
-5.65732
-5.67568
-5.69547
-5.71587
-5.73605
-5.75438
-5.76785
-5.77256
-5.7646
-5.74031
-5.69588
-5.6272
-5.52974
-5.39866
-5.22914
-5.01693
-4.75944
-4.45761
-5.60868
-5.61099
-5.61539
-5.6222
-5.63117
-5.64192
-5.65385
-5.6662
-5.67807
-5.68836
-5.69544
-5.69685
-5.6894
-5.66976
-5.6347
-5.58092
-5.50496
-5.40331
-5.27268
-5.11009
-4.91335
-4.6818
-4.41764
-5.60767
-5.60948
-5.61234
-5.61664
-5.62213
-5.62846
-5.63515
-5.64148
-5.6464
-5.64853
-5.64629
-5.63779
-5.62066
-5.59217
-5.54948
-5.4898
-5.41045
-5.30883
-5.18266
-5.03013
-4.8503
-4.64347
-4.41214
-5.60609
-5.60767
-5.60922
-5.61144
-5.61411
-5.61689
-5.61928
-5.62054
-5.61961
-5.61515
-5.60567
-5.58964
-5.56531
-5.53058
-5.48315
-5.42069
-5.34108
-5.24239
-5.12305
-4.98202
-4.81907
-4.63508
-4.43225
-5.60452
-5.60546
-5.60594
-5.6065
-5.6069
-5.60678
-5.60563
-5.60274
-5.59717
-5.58776
-5.5732
-5.55213
-5.5231
-5.48454
-5.4347
-5.37178
-5.29407
-5.20012
-5.08883
-4.95969
-4.81288
-4.64942
-4.47166
-5.60463
-5.6041
-5.60372
-5.60293
-5.6015
-5.59906
-5.59515
-5.58911
-5.58015
-5.56729
-5.54943
-5.52532
-5.49372
-5.45334
-5.40287
-5.34099
-5.26645
-5.17817
-5.07545
-4.95808
-4.82647
-4.68177
-4.52576
-5.60772
-5.60529
-5.60422
-5.60236
-5.59949
-5.59528
-5.58929
-5.58097
-5.56963
-5.55446
-5.53451
-5.50874
-5.47606
-5.43538
-5.38567
-5.32596
-5.2554
-5.17328
-5.0792
-4.97317
-4.85567
-4.72773
-4.591
-5.61395
-5.60977
-5.60816
-5.60548
-5.60152
-5.59599
-5.5885
-5.57857
-5.56562
-5.54897
-5.52782
-5.50133
-5.46858
-5.42869
-5.38081
-5.32422
-5.25833
-5.18271
-5.09721
-5.00197
-4.89749
-4.78469
-4.66499
-5.6228
-5.61723
-5.61523
-5.61195
-5.60721
-5.60075
-5.59225
-5.58129
-5.56738
-5.54994
-5.52833
-5.50187
-5.46984
-5.43153
-5.38629
-5.33354
-5.27288
-5.20405
-5.12704
-5.04208
-4.94968
-4.85062
-4.74611
-5.6338
-5.6271
-5.62484
-5.62118
-5.61595
-5.60895
-5.59988
-5.5884
-5.5741
-5.55651
-5.53511
-5.50937
-5.47871
-5.44262
-5.40057
-5.35216
-5.29709
-5.23521
-5.16657
-5.09146
-5.01033
-4.92387
-4.83312
-5.6467
-5.63903
-5.63664
-5.63279
-5.62734
-5.62012
-5.61088
-5.59934
-5.58517
-5.56799
-5.54738
-5.52294
-5.49423
-5.46085
-5.42243
-5.37868
-5.32939
-5.27449
-5.21406
-5.14838
-5.07786
-5.00309
-4.92493
-5.66138
-5.65282
-5.65041
-5.64654
-5.64111
-5.63395
-5.62488
-5.61368
-5.60008
-5.58378
-5.56447
-5.54182
-5.51552
-5.48527
-5.45081
-5.41193
-5.36852
-5.32055
-5.26812
-5.21148
-5.15102
-5.08718
-5.02068
-5.67771
-5.66836
-5.66602
-5.66227
-5.65703
-5.65018
-5.64158
-5.63104
-5.61837
-5.60334
-5.58572
-5.56526
-5.54174
-5.51495
-5.4847
-5.45087
-5.4134
-5.3723
-5.32766
-5.27973
-5.22881
-5.17531
-5.11974
-5.69553
-5.6855
-5.68331
-5.6798
-5.67492
-5.66858
-5.66068
-5.65107
-5.63961
-5.62616
-5.61054
-5.59257
-5.57212
-5.54903
-5.5232
-5.49454
-5.46304
-5.42873
-5.39171
-5.35218
-5.31042
-5.26672
-5.22148
-5.71467
-5.70409
-5.70211
-5.69895
-5.69457
-5.6889
-5.68187
-5.67339
-5.66338
-5.65173
-5.63834
-5.62311
-5.60594
-5.58674
-5.56546
-5.54205
-5.51653
-5.48896
-5.45941
-5.42805
-5.39511
-5.36083
-5.32546
-5.73487
-5.72392
-5.72222
-5.7195
-5.7157
-5.71082
-5.70481
-5.69763
-5.68924
-5.67958
-5.6686
-5.65627
-5.64253
-5.62736
-5.61071
-5.59261
-5.57307
-5.55217
-5.52998
-5.50661
-5.48226
-5.4571
-5.43128
-5.75615
-5.74474
-5.74341
-5.74118
-5.73805
-5.73404
-5.72915
-5.72338
-5.71672
-5.70918
-5.70076
-5.69144
-5.68125
-5.67018
-5.65825
-5.64548
-5.63192
-5.61764
-5.6027
-5.58721
-5.57128
-5.55504
-5.53856
-5.77523
-5.76711
-5.76624
-5.76452
-5.76206
-5.75893
-5.75519
-5.75085
-5.74596
-5.74057
-5.73472
-5.72844
-5.7218
-5.71483
-5.70759
-5.70012
-5.69249
-5.68476
-5.67701
-5.66928
-5.66166
-5.65424
-5.64701
-97.0933
5.15318
4.72488
4.73197
463.617
72.5764
3.13337
4.60057
372.882
217.073
105.292
6.17982
159.865
127.782
104.072
96.7293
7.01754
28.4103
32.9191
27.2481
-10.115
-9.69105
-7.69679
1.80211
-10.7078
-10.9201
-11.1497
-11.4351
-11.0331
-11.2151
-11.3919
-11.4888
-11.1132
-11.3633
-11.5742
-11.828
-11.8642
-12.3905
-12.9257
-13.2451
-12.9568
-13.665
-14.3543
-15.3165
-13.5963
-14.2736
-15.1437
-22.1643
-13.7384
-14.2628
-14.6376
-39.648
-13.8041
-14.3554
-14.7365
-33.8651
-14.1235
-14.9871
-15.5777
-7.30335
-14.5805
-16.7214
-18.9969
-30.4701
-12.665
-14.7348
-17.8887
-22.2074
-9.03282
-9.03844
-8.70492
-7.66496
-6.71441
-6.25216
-5.55944
-4.57022
-5.48032
-5.02447
-4.4617
-3.80634
-4.82904
-4.45049
-4.02517
-3.56503
-4.47848
-4.17306
-3.84479
-3.50124
-4.29039
-4.04247
-3.78241
-3.51458
-4.1974
-3.99326
-3.78184
-3.56595
-4.16239
-3.99203
-3.81689
-3.63876
-4.16473
-4.02046
-3.87317
-3.72404
-4.19399
-4.0705
-3.94507
-3.81863
-4.24333
-4.13705
-4.02939
-3.92099
-4.30761
-4.21571
-4.12269
-4.02901
-4.38297
-4.30318
-4.22241
-4.14108
-4.46658
-4.39722
-4.32701
-4.2563
-4.55661
-4.49636
-4.43542
-4.37402
-4.65189
-4.59965
-4.54688
-4.49372
-4.75158
-4.70645
-4.66092
-4.61511
-4.85492
-4.81622
-4.77723
-4.73804
-4.96132
-4.92854
-4.89554
-4.86239
-5.07027
-5.04301
-5.01558
-4.98803
-5.18135
-5.15927
-5.13707
-5.11478
-5.29421
-5.27704
-5.25981
-5.24252
-5.40856
-5.39613
-5.38365
-5.37114
-5.52417
-5.51633
-5.50847
-5.50059
-5.64084
-5.63751
-5.63417
-5.63083
4.73947
4.72226
4.73187
4.76541
4.80679
4.8425
4.86503
4.87286
4.86769
4.85265
4.83094
4.8055
4.77878
4.75269
4.72874
4.70812
4.69165
4.67993
4.67333
4.73531
4.54257
4.55579
4.61542
4.68522
4.73972
4.77024
4.77809
4.76835
4.7466
4.7176
4.68519
4.65227
4.6209
4.59259
4.56854
4.54956
4.53619
4.52872
2.22137
4.26309
4.33021
4.44821
4.57244
4.65418
4.69217
4.69647
4.67791
4.64565
4.60634
4.5646
4.52372
4.48581
4.45225
4.42413
4.4022
4.3869
4.37841
48.6677
3.97025
3.91279
4.2638
4.48702
4.59926
4.63806
4.63077
4.59691
4.54913
4.49593
4.44237
4.39178
4.34617
4.30662
4.27394
4.24871
4.23126
4.22165
38.5689
3.0033
3.22853
4.14136
4.4706
4.59238
4.61472
4.58297
4.52441
4.45508
4.38418
4.31644
4.25466
4.20042
4.15436
4.11684
4.08813
4.06841
4.05761
-46.2425
-19.4595
4.02238
4.17259
4.54922
4.64418
4.62418
4.55027
4.4566
4.35969
4.26772
4.18401
4.1101
4.04678
3.994
3.95158
3.91941
3.89742
3.88542
-23.6658
-41.4917
2.63861
4.30697
4.7471
4.7625
4.66142
4.52499
4.38612
4.25696
4.14193
4.04155
3.95547
3.88322
3.82396
3.7769
3.7415
3.71739
3.70426
-10.9729
-33.0903
3.93273
5.03868
5.16997
4.94803
4.70901
4.49102
4.30132
4.13886
4.00124
3.88517
3.78798
3.70772
3.64268
3.59157
3.5534
3.5275
3.51339
-12.3508
-9.51136
7.75885
6.21623
5.62424
5.10483
4.71926
4.42241
4.18711
3.99623
3.83983
3.71098
3.60491
3.51832
3.44875
3.3945
3.35423
3.32699
3.31217
-12.469
1.30314
9.95924
6.80341
5.79058
5.10497
4.6349
4.29202
4.02926
3.8209
3.65276
3.51577
3.40407
3.3135
3.24108
3.1849
3.14338
3.11536
3.10014
-34.4146
3.58256
7.6941
6.48863
5.52221
4.88418
4.4267
4.08519
3.81979
3.60808
3.43696
3.29753
3.18407
3.09226
3.01898
2.96229
2.92048
2.89234
2.87708
-27.8736
4.09425
5.56829
5.53793
4.93451
4.4779
4.10702
3.80582
3.55953
3.35761
3.19192
3.05573
2.94448
2.85429
2.78227
2.72657
2.68551
2.65792
2.643
-8.00464
4.08637
4.20266
4.38491
4.22592
3.98147
3.71735
3.47193
3.25644
3.0731
2.91932
2.79123
2.68584
2.59999
2.53127
2.47804
2.43875
2.41238
2.39818
-3.70258
2.56167
2.69571
3.47533
3.60219
3.48949
3.30148
3.10419
2.9208
2.76
2.62225
2.50599
2.40951
2.33036
2.26677
2.21736
2.18079
2.15628
2.14315
-10.8215
3.42126
2.35476
3.13067
3.16697
3.04388
2.88112
2.71527
2.56074
2.42356
2.30427
2.20258
2.11737
2.04688
1.98998
1.94554
1.91251
1.89041
1.87864
-29.5235
2.78896
3.60533
3.08882
2.79856
2.60676
2.44888
2.3076
2.18065
2.06793
1.96897
1.88388
1.8117
1.75138
1.70239
1.66384
1.63502
1.61579
1.6056
-13.2512
1.87466
2.81192
2.52777
2.28286
2.11577
1.98801
1.87933
1.78312
1.69679
1.61997
1.55292
1.49497
1.44593
1.40573
1.37369
1.3496
1.33358
1.32511
-4.24677
0.587544
1.55322
1.67363
1.62949
1.56278
1.49624
1.43248
1.3719
1.31431
1.26101
1.21283
1.16984
1.13275
1.10181
1.0767
1.05769
1.04506
1.03837
-2.94047
-0.659595
0.377756
0.783352
0.932238
0.980872
0.987635
0.975376
0.953085
0.925384
0.896017
0.866827
0.839037
0.814112
0.792537
0.774521
0.760758
0.751573
0.746649
-2.86891
-1.41924
-0.502335
0.00224369
0.268569
0.40892
0.482579
0.519332
0.53394
0.53531
0.52905
0.518238
0.505315
0.492233
0.479806
0.468845
0.460291
0.45446
0.451238
-2.93308
-1.91213
-1.14939
-0.64378
-0.324842
-0.126193
-0.00229524
0.0747661
0.121674
0.149219
0.164009
0.170237
0.171231
0.169196
0.165454
0.161289
0.157698
0.155022
0.153393
-3.03702
-2.2687
-1.63946
-1.1716
-0.841257
-0.613405
-0.457306
-0.350595
-0.277838
-0.228485
-0.195622
-0.174336
-0.16096
-0.153042
-0.148777
-0.146646
-0.145697
-0.145479
-0.145594
-3.15448
-2.54981
-2.02677
-1.60791
-1.28859
-1.05179
-0.878456
-0.752318
-0.660837
-0.594703
-0.547177
-0.513309
-0.489413
-0.472801
-0.461408
-0.453712
-0.448764
-0.44593
-0.444616
-3.27647
-2.78575
-2.34623
-1.97624
-1.67833
-1.44517
-1.26571
-1.12901
-1.02553
-0.947424
-0.888763
-0.845006
-0.812538
-0.788602
-0.771172
-0.758789
-0.750412
-0.745242
-0.742616
-3.40013
-2.99308
-2.61984
-2.29457
-2.02193
-1.79965
-1.62188
-1.48149
-1.37144
-1.28567
-1.21933
-1.16828
-1.12913
-1.09937
-1.07713
-1.06096
-1.04969
-1.04248
-1.0387
-3.52442
-3.1816
-2.86191
-2.57617
-2.3294
-2.12185
-1.95066
-1.81134
-1.69906
-1.60944
-1.53843
-1.48239
-1.43844
-1.40442
-1.37858
-1.35942
-1.34579
-1.33689
-1.33214
-3.64955
-3.35756
-3.08179
-2.83061
-2.6087
-2.41741
-2.25562
-2.12076
-2.00976
-1.91929
-1.84603
-1.78708
-1.74015
-1.70335
-1.67494
-1.65351
-1.63806
-1.62787
-1.6224
-3.77601
-3.52495
-3.28565
-3.06459
-2.86582
-2.69113
-2.54044
-2.41246
-2.30514
-2.21597
-2.14249
-2.08254
-2.03427
-1.99587
-1.96577
-1.94279
-1.92609
-1.915
-1.90903
-3.90366
-3.68632
-3.4778
-3.28308
-3.10563
-2.94729
-2.80856
-2.68879
-2.58667
-2.50049
-2.42857
-2.36924
-2.32084
-2.28178
-2.25081
-2.22701
-2.20963
-2.19803
-2.19175
-4.03224
-3.84339
-3.66126
-3.48981
-3.33188
-3.18924
-3.06259
-2.95174
-2.85596
-2.77417
-2.70516
-2.64754
-2.59993
-2.56109
-2.53008
-2.50614
-2.48857
-2.47678
-2.47037
-4.16165
-3.99728
-3.83814
-3.68735
-3.54728
-3.41949
-3.30479
-3.20329
-3.11466
-3.03819
-2.97294
-2.91783
-2.87182
-2.83405
-2.80376
-2.78027
-2.76292
-2.75122
-2.74484
-4.29177
-4.14879
-4.00993
-3.87767
-3.75396
-3.6402
-3.53719
-3.44521
-3.36412
-3.29347
-3.23256
-3.18066
-3.13706
-3.10111
-3.07215
-3.04954
-3.03276
-3.02139
-3.01518
-4.42248
-4.29848
-4.17774
-4.06225
-3.95363
-3.85308
-3.76136
-3.6788
-3.60539
-3.54089
-3.48486
-3.43684
-3.39632
-3.36274
-3.33553
-3.31418
-3.29825
-3.28743
-3.28151
-4.55375
-4.44678
-4.3424
-4.24221
-4.14754
-4.05941
-3.97851
-3.9052
-3.83957
-3.78153
-3.73086
-3.68723
-3.65022
-3.61939
-3.59427
-3.57446
-3.55964
-3.54956
-3.54402
-4.68558
-4.59405
-4.50456
-4.41843
-4.33673
-4.26034
-4.18984
-4.12562
-4.06785
-4.01651
-3.97149
-3.93254
-3.89932
-3.8715
-3.84874
-3.83074
-3.81724
-3.80804
-3.80299
-4.81803
-4.74062
-4.66484
-4.59174
-4.52221
-4.45696
-4.39651
-4.34122
-4.29129
-4.24674
-4.20748
-4.17336
-4.14414
-4.11956
-4.09939
-4.0834
-4.07139
-4.06319
-4.05868
-4.95117
-4.88683
-4.82381
-4.76292
-4.70489
-4.65027
-4.59953
-4.55297
-4.51077
-4.47297
-4.43954
-4.41035
-4.38527
-4.36413
-4.34673
-4.33291
-4.32251
-4.3154
-4.3115
-5.08496
-5.03289
-4.98188
-4.93254
-4.88543
-4.84101
-4.79965
-4.76158
-4.72696
-4.69587
-4.66828
-4.64412
-4.62331
-4.60572
-4.59123
-4.57969
-4.57099
-4.56505
-4.56178
-5.21937
-5.17895
-5.13934
-5.10102
-5.06438
-5.02977
-4.99748
-4.9677
-4.94055
-4.9161
-4.89436
-4.87529
-4.85882
-4.84487
-4.83337
-4.8242
-4.81728
-4.81255
-4.80994
-5.35439
-5.32514
-5.29648
-5.26874
-5.24219
-5.21709
-5.19364
-5.17197
-5.15218
-5.13433
-5.11843
-5.10446
-5.09237
-5.08213
-5.07366
-5.06691
-5.06181
-5.05832
-5.0564
-5.49003
-5.47159
-5.45354
-5.43607
-5.41933
-5.4035
-5.38869
-5.375
-5.36247
-5.35116
-5.34107
-5.3322
-5.32452
-5.318
-5.31261
-5.3083
-5.30505
-5.30283
-5.3016
-5.62633
-5.61847
-5.61079
-5.60335
-5.59624
-5.5895
-5.58319
-5.57735
-5.57202
-5.56719
-5.56288
-5.55909
-5.55581
-5.55302
-5.55071
-5.54887
-5.54747
-5.54652
-5.54599
2133.59
2134.72
2132.69
2130.34
2128.32
2126.33
2124.23
2122.14
2120.41
2119.73
2121.24
2126.77
2139.06
2161.98
2200.7
2261.96
2354
2483.69
2652.77
2820.47
2895.31
2810.44
3013.58
2073.49
2074.6
2072.57
2070.24
2068.19
2066.13
2063.94
2061.73
2059.85
2058.98
2060.24
2065.45
2077.33
2099.72
2137.71
2197.43
2285.61
2407.84
2561.53
2723.68
2830.17
2723.51
2910.12
2011.74
2012.79
2010.78
2008.47
2006.35
2004.14
2001.73
1999.25
1997.03
1995.71
1996.4
2000.86
2011.78
2032.93
2069.31
2126.82
2211.45
2326.84
2467.43
2607.97
2708.23
2711.68
2931.39
1948.39
1949.32
1947.34
1945.05
1942.82
1940.36
1937.62
1934.72
1931.95
1929.93
1929.7
1932.98
1942.37
1961.58
1995.45
2049.67
2129.62
2237.87
2368.65
2501.94
2611.51
2721.07
2968.92
1883.49
1884.25
1882.3
1880.03
1877.61
1874.82
1871.62
1868.13
1864.61
1861.62
1860.14
1861.78
1869.05
1885.55
1915.99
1965.83
2040.09
2140.88
2263.25
2392.17
2513
2651.25
2884.08
1817.09
1817.63
1815.71
1813.42
1810.75
1807.53
1803.75
1799.51
1795.03
1790.8
1787.69
1787.21
1791.74
1804.71
1830.72
1875.06
1942.57
2035.31
2149.45
2273.54
2397.59
2533.72
2702.83
1749.26
1749.54
1747.63
1745.27
1742.28
1738.52
1734.03
1728.88
1723.22
1717.46
1712.35
1709.25
1710.35
1718.93
1739.42
1777.02
1836.51
1920.17
2025.15
2141.49
2257.03
2364.19
2432
1680.12
1680.05
1678.13
1675.64
1672.23
1667.84
1662.51
1656.26
1649.21
1641.62
1634.11
1627.84
1624.77
1627.98
1641.72
1671.1
1721.02
1794.1
1888.11
1992.72
2087.97
2132.96
1974.25
5.25842
5.26417
5.27377
5.28607
5.2989
5.30965
5.3162
5.31742
5.31309
5.30374
5.29046
5.27456
5.25747
5.2405
5.2248
5.21135
5.20093
5.19408
5.19111
5.1987
5.20453
5.21432
5.22699
5.24022
5.25129
5.25802
5.25928
5.25488
5.2454
5.23193
5.21584
5.19858
5.18146
5.16563
5.15208
5.14158
5.13468
5.1317
5.13796
5.14395
5.15414
5.16765
5.18185
5.19369
5.20084
5.20218
5.1976
5.18774
5.1738
5.15727
5.13959
5.12209
5.10595
5.09215
5.08147
5.07445
5.07142
5.07616
5.08223
5.09305
5.10803
5.12384
5.13691
5.14473
5.14617
5.14124
5.13077
5.11609
5.09882
5.08046
5.06237
5.04575
5.03157
5.0206
5.01338
5.01026
5.01328
5.01939
5.03098
5.04806
5.06618
5.08102
5.08977
5.09132
5.08587
5.07451
5.05881
5.04051
5.0212
5.00229
4.985
4.9703
4.95893
4.95145
4.94822
4.94901
4.95457
4.96758
4.98769
5.00895
5.02612
5.03605
5.03769
5.03152
5.019
5.00199
4.98234
4.96179
4.94183
4.92369
4.90831
4.89645
4.88865
4.88527
4.88373
4.88766
4.90269
4.92686
4.95226
4.97241
4.98373
4.98538
4.97828
4.9643
4.94562
4.9243
4.90222
4.88096
4.86175
4.84556
4.83311
4.82494
4.8214
4.81788
4.81803
4.83584
4.86552
4.89633
4.92015
4.93306
4.93456
4.92621
4.91041
4.88969
4.86638
4.84248
4.81964
4.79916
4.78199
4.76885
4.76027
4.75655
1589.69
1589.13
1587.19
1584.42
1580.36
1575.02
1568.43
1560.57
1551.42
1541.12
1530.03
1518.98
1509.59
1504.53
1507.8
1524.35
1559.19
1615.62
1692.02
1776.11
1833.09
1753.55
887.416
1435.19
1433.86
1431.54
1427.92
1422.41
1415.06
1405.84
1394.55
1380.98
1364.88
1346.06
1324.59
1301.11
1277.37
1256.59
1243.33
1242.84
1259.8
1295.74
1338.34
1342.47
1191.62
794.468
1276.26
1274.02
1271.02
1266.1
1258.7
1248.82
1236.3
1220.75
1201.65
1178.25
1149.64
1114.68
1072.45
1022.96
967.952
910.686
855.55
809.949
775.478
778.248
802.24
727.305
500.471
1113.78
1110.57
1106.57
1099.94
1090.24
1077.35
1060.9
1040.27
1014.57
982.467
942.027
890.482
824.34
740.725
638.796
518.127
363.73
149.055
16.7827
5.09223
24.1112
109.716
179.899
948.712
944.529
939.235
930.609
918.287
901.98
881.083
854.699
821.498
779.439
725.36
654.326
558.534
433.364
270.067
69.6927
-3.64276
-8.08409
-8.33483
-8.40208
-8.60943
-8.07611
-3.14101
782.052
776.965
770.196
759.425
744.312
724.356
698.7
666.13
624.848
571.973
502.784
410.649
280.363
105.857
-0.776169
-7.48861
-8.01317
-8.32838
-8.59142
-8.82937
-9.10409
-9.46493
-9.99072
614.832
608.98
600.697
587.797
569.9
546.323
515.929
477.17
427.867
364.537
281.143
163.36
14.0974
-6.84805
-7.61954
-7.98051
-8.25648
-8.52055
-8.78818
-9.08247
-9.43124
-9.909
-10.5227
448.195
441.738
432.09
417.231
396.689
369.835
335.116
290.829
234.658
162.533
61.0019
-4.2879
-6.9991
-7.67663
-7.94656
-8.17683
-8.40663
-8.67878
-8.98867
-9.34248
-9.76102
-10.2927
-10.872
282.457
275.905
265.378
249.023
225.953
197.394
159.195
111.266
47.5837
0.89515
-5.69566
-5.64779
-6.89357
-7.99546
-8.09471
-8.27926
-8.52385
-8.82039
-9.16856
-9.57232
-10.0321
-10.5161
-10.9408
122.464
113.89
102.437
86.7107
59.0637
33.9504
8.97006
-4.31442
-6.40244
-6.127
-5.97336
-5.96344
-7.2501
-7.9688
-8.12576
-8.33646
-8.60212
-8.92611
-9.3131
-9.76868
-10.2943
-10.8734
-11.5056
-1.58955
-1.18483
-3.33726
-4.8719
-5.09907
-5.5383
-5.58414
-5.87715
-6.19871
-6.28621
-6.24332
-6.26934
-7.71221
-7.91226
-8.10696
-8.34338
-8.63205
-8.98437
-9.41116
-9.92683
-10.5511
-11.325
-12.3897
-4.98304
-5.03633
-5.11746
-5.18168
-5.29887
-5.52182
-5.74345
-6.01642
-6.32523
-6.52971
-6.57431
-6.5697
-7.62755
-7.83719
-8.04886
-8.3018
-8.6095
-8.98589
-9.44877
-10.0217
-10.7411
-11.6733
-12.9719
-5.12552
-5.1622
-5.22406
-5.30668
-5.43047
-5.61387
-5.85706
-6.18784
-6.62586
-7.00086
-7.14641
-7.13063
-7.42669
-7.7203
-7.96069
-8.21399
-8.53192
-8.9221
-9.40915
-10.0235
-10.8135
-11.8421
-13.1879
-5.25015
-5.27938
-5.33408
-5.41692
-5.53683
-5.7114
-5.96444
-6.37778
-7.02822
-7.68832
-7.85969
-7.53065
-7.4438
-7.63185
-7.82652
-8.08559
-8.39851
-8.7864
-9.27681
-9.90959
-10.7481
-11.8512
-13.2615
-5.35104
-5.37712
-5.42758
-5.50494
-5.61861
-5.78275
-6.02972
-6.49152
-7.20195
-7.84294
-7.94582
-7.63881
-7.48683
-7.53111
-7.69307
-7.92297
-8.21221
-8.57501
-9.03927
-9.65275
-10.4968
-11.6993
-13.3987
-5.42965
-5.4544
-5.50045
-5.57151
-5.67387
-5.82199
-6.04131
-6.45416
-6.99242
-7.38104
-7.55385
-7.47081
-7.3487
-7.39506
-7.53006
-7.7257
-7.97611
-8.29051
-8.69286
-9.22985
-9.993
-11.1819
-13.2792
-5.48968
-5.51257
-5.55364
-5.6156
-5.70431
-5.83076
-6.01081
-6.33064
-6.79826
-7.08498
-7.17784
-7.16641
-7.1533
-7.21631
-7.33389
-7.49483
-7.6963
-7.94339
-8.2509
-8.64985
-9.20086
-10.0398
-11.6006
-5.53381
-5.55352
-5.58879
-5.6411
-5.71489
-5.81597
-5.95057
-6.14719
-6.46942
-6.80024
-6.84373
-6.85833
-6.92338
-7.00529
-7.11008
-7.2369
-7.38496
-7.55492
-7.75053
-7.97939
-8.25048
-8.57189
-8.94152
-5.56461
-5.58087
-5.61029
-5.65417
-5.71412
-5.7931
-5.89354
-6.01766
-6.17308
-6.33071
-6.47088
-6.57582
-6.68717
-6.78063
-6.87152
-6.96451
-7.05949
-7.15332
-7.2406
-7.31084
-7.33888
-7.27046
-6.96553
-5.58475
-5.59825
-5.62305
-5.65938
-5.70778
-5.76946
-5.8458
-5.93786
-6.04415
-6.15783
-6.27316
-6.3833
-6.48226
-6.5639
-6.63374
-6.69261
-6.73841
-6.76566
-6.76331
-6.71218
-6.5779
-6.30181
-5.77593
-5.59758
-5.60891
-5.62937
-5.65912
-5.69822
-5.74701
-5.80649
-5.87748
-5.95879
-6.04719
-6.13778
-6.22477
-6.30124
-6.36253
-6.40761
-6.43406
-6.43768
-6.41183
-6.34401
-6.21395
-5.99204
-5.63665
-5.09279
-5.60528
-5.61444
-5.6311
-5.65526
-5.68679
-5.72572
-5.77252
-5.82757
-5.89004
-5.95711
-6.02458
-6.08777
-6.14117
-6.17984
-6.20006
-6.19794
-6.16822
-6.1035
-5.99254
-5.81877
-5.56112
-5.19547
-4.69961
-5.60934
-5.6167
-5.63002
-5.64933
-5.67454
-5.70546
-5.74194
-5.78372
-5.82989
-5.87829
-5.92558
-5.96773
-5.99997
-6.01729
-6.01524
-5.9897
-5.93537
-5.84494
-5.70898
-5.51603
-5.253
-4.9078
-4.47412
-5.61091
-5.61669
-5.62715
-5.64227
-5.66195
-5.68582
-5.71321
-5.74333
-5.77533
-5.80786
-5.83823
-5.86259
-5.87649
-5.87549
-5.85538
-5.81204
-5.74055
-5.63473
-5.48739
-5.29101
-5.03846
-4.72513
-4.35059
-5.61071
-5.61512
-5.62302
-5.63438
-5.64897
-5.66626
-5.68545
-5.70564
-5.72606
-5.7456
-5.76195
-5.77155
-5.77039
-5.75473
-5.72086
-5.66485
-5.58237
-5.46871
-5.319
-5.12859
-4.8939
-4.61387
-4.29132
-5.60972
-5.61288
-5.6185
-5.62643
-5.63635
-5.64778
-5.66003
-5.67226
-5.6835
-5.69243
-5.69704
-5.69444
-5.68131
-5.65436
-5.61036
-5.54593
-5.45755
-5.34181
-5.19554
-5.01608
-4.80189
-4.55358
-4.27462
-5.60864
-5.61071
-5.61432
-5.61925
-5.62521
-5.6318
-5.63842
-5.6442
-5.64791
-5.64807
-5.64296
-5.63046
-5.60801
-5.57278
-5.52194
-5.45275
-5.36257
-5.24894
-5.10978
-4.94364
-4.75018
-4.53067
-4.28844
-5.60721
-5.60835
-5.61026
-5.61274
-5.61551
-5.61817
-5.62011
-5.62043
-5.61791
-5.61113
-5.59858
-5.57864
-5.54938
-5.5086
-5.45393
-5.38316
-5.29423
-5.18539
-5.05529
-4.90326
-4.7296
-4.5358
-4.32487
-5.6053
-5.60567
-5.60622
-5.60674
-5.60693
-5.60637
-5.60445
-5.60036
-5.59303
-5.58121
-5.56357
-5.53871
-5.50512
-5.46114
-5.40498
-5.33487
-5.2492
-5.14668
-5.0265
-4.88845
-4.73314
-4.56219
-4.37824
-5.60419
-5.60394
-5.60338
-5.60231
-5.60043
-5.59733
-5.59244
-5.58505
-5.57427
-5.55906
-5.53823
-5.51054
-5.47471
-5.42945
-5.37344
-5.30538
-5.22408
-5.12864
-5.01858
-4.894
-4.75565
-4.605
-4.44433
-5.60559
-5.60484
-5.6034
-5.60107
-5.59758
-5.59254
-5.58546
-5.57572
-5.56258
-5.54515
-5.52243
-5.49334
-5.45679
-5.41172
-5.35712
-5.29208
-5.21582
-5.12775
-5.02766
-4.9158
-4.79291
-4.66033
-4.51996
-5.61023
-5.60909
-5.60696
-5.60367
-5.59897
-5.59252
-5.58387
-5.57251
-5.5578
-5.53901
-5.5153
-5.48579
-5.44958
-5.40579
-5.35364
-5.29247
-5.22175
-5.1412
-5.05079
-4.95084
-4.84205
-4.7256
-4.60304
-5.6178
-5.61638
-5.61376
-5.60977
-5.60421
-5.59678
-5.58711
-5.57474
-5.55914
-5.5397
-5.51575
-5.4866
-5.45151
-5.40981
-5.36088
-5.30422
-5.23949
-5.16656
-5.08553
-4.99677
-4.90091
-4.79896
-4.69221
-5.62773
-5.62614
-5.62319
-5.61877
-5.61269
-5.60469
-5.59446
-5.58163
-5.56575
-5.54632
-5.52282
-5.49469
-5.46138
-5.42236
-5.37718
-5.32547
-5.267
-5.20172
-5.1298
-5.05161
-4.96772
-4.87896
-4.78645
-5.63969
-5.63801
-5.6349
-5.63027
-5.62397
-5.61577
-5.60542
-5.59261
-5.57698
-5.55814
-5.53567
-5.50915
-5.47815
-5.44229
-5.40124
-5.35473
-5.30264
-5.24495
-5.18185
-5.11369
-5.04097
-4.96437
-4.88484
-5.65349
-5.65179
-5.64866
-5.64403
-5.63775
-5.62967
-5.61956
-5.6072
-5.59228
-5.57452
-5.55358
-5.52914
-5.5009
-5.46858