/*--------------------------------*- C++ -*----------------------------------*\
| =========                 |                                                 |
| \\      /  F ield         | OpenFOAM: The Open Source CFD Toolbox           |
|  \\    /   O peration     | Version:  v1912                                 |
|   \\  /    A nd           | Website:  www.openfoam.com                      |
|    \\/     M anipulation  |                                                 |
\*---------------------------------------------------------------------------*/
FoamFile
{
    version     2.0;
    format      ascii;
    class       volScalarField;
    location    "0.2";
    object      p_rgh;
}
// * * * * * * * * * * * * * * * * * * * * * * * * * * * * * * * * * * * * * //

dimensions      [1 -1 -2 0 0 0 0];


internalField   nonuniform List<scalar> 
9072
(
2145.48
2149.42
2148.6
2146.18
2144.02
2142.05
2140.01
2137.88
2135.91
2134.59
2134.83
2138.07
2146.57
2163.61
2193.71
2242.69
2318.43
2428.41
2578.8
2757.5
2884.37
2883.8
2864.02
2143.45
2148.16
2147.34
2144.93
2142.77
2140.75
2138.63
2136.39
2134.29
2132.81
2132.82
2135.78
2143.92
2160.49
2189.97
2238.03
2311.11
2415.91
2555.07
2717.74
2863.11
2893.88
2759.91
2139.82
2145.23
2144.39
2142.02
2139.83
2137.7
2135.39
2132.92
2130.51
2128.63
2128.14
2130.44
2137.74
2153.22
2181.3
2227.47
2297.85
2397.75
2527.42
2672.59
2798.14
2859.49
2884.67
2134.63
2140.67
2139.78
2137.47
2135.24
2132.92
2130.32
2127.47
2124.58
2122.08
2120.79
2122.05
2128
2141.76
2167.63
2210.94
2277.45
2371.57
2492.62
2628.06
2751.71
2851.78
3010.16
2127.92
2134.53
2133.56
2131.31
2129
2126.42
2123.42
2120.05
2116.5
2113.15
2110.76
2110.58
2114.67
2126.03
2148.84
2188.29
2249.82
2337.4
2450.24
2578.23
2703.8
2824.58
3003.59
2119.76
2126.86
2125.79
2123.6
2121.16
2118.22
2114.71
2110.69
2106.29
2101.85
2098.04
2096.01
2097.67
2105.92
2124.77
2159.27
2214.7
2294.84
2399.28
2520.13
2644.45
2770.45
2919.95
2110.22
2117.73
2116.55
2114.37
2111.73
2108.36
2104.23
2099.4
2093.96
2088.19
2082.62
2078.3
2076.96
2081.32
2095.24
2123.62
2171.66
2243.2
2338.33
2450.57
2567.69
2679.43
2770.07
2099.38
2107.23
2105.9
2103.7
2100.79
2096.88
2092.02
2086.22
2079.55
2072.17
2064.52
2057.44
2052.46
2052.08
2059.95
2080.85
2119.97
2181.37
2265.65
2366.81
2469.91
2547.68
2531.18
5.2716
5.27548
5.28325
5.29441
5.3073
5.3194
5.32826
5.33222
5.33064
5.32369
5.31222
5.29746
5.28079
5.26361
5.24714
5.23245
5.22043
5.21175
5.20681
5.27023
5.27466
5.28254
5.29399
5.30728
5.31976
5.32887
5.33294
5.33135
5.32429
5.31265
5.29769
5.28085
5.2635
5.24689
5.23209
5.21998
5.21123
5.20626
5.2679
5.27283
5.28096
5.29305
5.3073
5.32067
5.33038
5.3347
5.33303
5.3257
5.31362
5.2982
5.28092
5.26317
5.24622
5.23114
5.21882
5.20991
5.20486
5.26464
5.26986
5.27827
5.29149
5.30736
5.3222
5.33287
5.33756
5.33576
5.32792
5.31515
5.29897
5.28098
5.2626
5.2451
5.22959
5.21693
5.20778
5.20259
5.26051
5.26574
5.27446
5.28924
5.30744
5.32438
5.33641
5.34161
5.33957
5.33098
5.31724
5.30003
5.28104
5.26176
5.24353
5.22743
5.21431
5.20483
5.19944
5.25537
5.25963
5.2688
5.28613
5.30755
5.32731
5.34111
5.34692
5.34452
5.33495
5.31995
5.30139
5.28108
5.26066
5.24148
5.22461
5.21092
5.20103
5.19541
5.25021
5.25174
5.2612
5.28203
5.30774
5.33115
5.34715
5.35361
5.35069
5.33988
5.32328
5.30304
5.28112
5.25927
5.2389
5.2211
5.2067
5.19633
5.19044
5.24703
5.24182
5.25109
5.27666
5.30811
5.33618
5.35479
5.36189
5.3582
5.34581
5.32724
5.30495
5.28111
5.25756
5.23577
5.21684
5.20161
5.19069
5.18452
2076.3
2091.94
2090.4
2088.11
2084.72
2080.02
2074.05
2066.83
2058.32
2048.57
2037.8
2026.59
2016.11
2008.46
2007
2016.26
2041.38
2086.79
2153.92
2236.68
2314.03
2328.32
2077.18
2045.07
2062.17
2060.15
2057.32
2052.77
2046.33
2038.06
2027.83
2015.43
2000.62
1983.18
1963
1940.39
1916.47
1893.71
1876.06
1868.53
1876.29
1903.05
1945.17
1978.55
1925
1643.21
2009.91
2027.86
2025.23
2021.42
2015.26
2006.63
1995.47
1981.49
1964.24
1943.1
1917.22
1885.58
1847.07
1801.1
1748.54
1691.92
1635.03
1583.94
1543.4
1520.78
1550.38
1532.45
1383.97
1971.72
1989.99
1986.56
1981.39
1973.23
1961.96
1947.35
1928.91
1905.88
1877.17
1841.19
1795.6
1737.21
1662.55
1569.88
1459.36
1324.34
1147.18
808.831
383.098
320.232
559.513
1042.2
1931.45
1949.56
1945.17
1938.33
1927.87
1913.61
1895.1
1871.6
1842.01
1804.69
1757.11
1695.3
1613.04
1502.27
1361.17
1170.93
546.914
-6.30062
-7.2034
-7.3652
-7.48528
-7.03053
-1.32842
1890.11
1907.63
1902.18
1893.48
1880.58
1863.13
1840.45
1811.52
1774.87
1728.25
1667.98
1588.11
1479.99
1319.38
731.07
-5.21271
-6.69616
-7.04338
-7.33154
-7.58405
-7.83119
-8.13575
-8.5092
1848.71
1865.26
1858.73
1848.18
1832.85
1812.22
1785.41
1751.05
1707.34
1651.63
1579.26
1481.31
1232.45
0.780497
-5.99484
-6.56977
-6.86655
-7.13841
-7.39861
-7.67772
-7.99337
-8.39485
-8.95398
1808.26
1823.62
1816.09
1803.86
1786.22
1762.64
1732.14
1692.76
1642.69
1579.78
1492.58
801.338
-4.06663
-6.00779
-6.43841
-6.68835
-6.9081
-7.15927
-7.45042
-7.7807
-8.16287
-8.63176
-9.21498
1769.72
1783.24
1775.07
1761.7
1741.87
1716.03
1683.73
1638.33
1561.71
1019.89
28.2825
-4.02612
-4.2409
-3.33056
-6.53253
-6.67506
-6.89098
-7.16208
-7.48413
-7.85949
-8.29183
-8.772
-9.2313
1665.45
1746.43
1735.82
1721.23
1673.17
1482.09
1038.71
341.079
-4.53183
-4.62107
-4.40877
-4.34133
4.59246
-2.7511
-6.41347
-6.59547
-6.83323
-7.1277
-7.48245
-7.90308
-8.39423
-8.95036
-9.54014
-3.11777
245.975
154.679
40.2179
-3.12788
-3.57627
-3.81543
-3.94701
-4.30248
-4.51903
-4.516
-4.50468
3.69151
-5.99054
-6.25648
-6.46493
-6.72627
-7.04551
-7.43352
-7.90274
-8.46959
-9.16004
-10.0489
-3.11481
-3.12564
-3.1958
-3.27722
-3.34325
-3.52634
-3.75333
-3.99034
-4.29491
-4.56916
-4.69137
-4.70483
3.77518
-5.89443
-6.05652
-6.28968
-6.56872
-6.90877
-7.32596
-7.84023
-8.48065
-9.29486
-10.3849
-3.11917
-3.13613
-3.18594
-3.25794
-3.35689
-3.51056
-3.72245
-4.00401
-4.39374
-4.8307
-5.05066
-5.14389
-4.18321
-5.58901
-5.80335
-6.07183
-6.36054
-6.71181
-7.14744
-7.6927
-8.38888
-9.28806
-10.4676
-3.10207
-3.13144
-3.17379
-3.24192
-3.34143
-3.48639
-3.69562
-4.01012
-4.55485
-4.36174
-4.4138
-5.21891
-5.27464
-5.37796
-5.57589
-5.82071
-6.10438
-6.45188
-6.88698
-7.44166
-8.16895
-9.12607
-10.3939
-3.06659
-3.10591
-3.14435
-3.20754
-3.30166
-3.43811
-3.6374
-3.96135
-4.57412
-3.9446
-4.59731
-5.55757
-5.222
-5.21609
-5.34562
-5.54597
-5.80468
-6.12813
-6.5372
-7.06828
-7.7843
-8.78825
-10.229
-3.01324
-3.05929
-3.09457
-3.15251
-3.23797
-3.36092
-3.53973
-3.82981
-4.36103
-4.17259
-5.10845
-5.12688
-4.98794
-4.97674
-5.07339
-5.241
-5.4637
-5.74411
-6.0984
-6.5602
-7.1943
-8.13455
-9.68122
-2.94124
-2.99372
-3.02545
-3.07642
-3.15077
-3.25675
-3.40674
-3.63744
-4.06339
-4.22746
-2.7215
-3.63198
-4.64357
-4.67211
-4.7638
-4.90403
-5.08508
-5.30825
-5.58281
-5.93089
-6.39522
-7.06522
-8.16452
-2.85394
-2.91128
-2.93869
-2.98212
-3.04454
-3.13109
-3.24814
-3.40576
-3.66348
-2.36231
-0.890464
-1.10282
-4.25918
-4.33148
-4.42428
-4.54034
-4.67777
-4.83661
-5.01866
-5.2297
-5.47877
-5.77359
-6.12481
-2.75467
-2.81549
-2.8382
-2.87468
-2.92629
-2.99536
-3.08494
-3.19643
-3.33619
-3.49769
-3.65039
-3.76651
-3.87802
-3.97947
-4.07026
-4.162
-4.25623
-4.35112
-4.44259
-4.52321
-4.57706
-4.56597
-4.40948
-2.64595
-2.70925
-2.72835
-2.75888
-2.80115
-2.856
-2.92484
-3.00894
-3.10881
-3.21938
-3.33519
-3.44787
-3.55429
-3.6439
-3.71933
-3.78373
-3.83652
-3.87403
-3.88827
-3.86466
-3.77755
-3.58158
-3.19942
-2.53134
-2.59607
-2.61193
-2.63702
-2.67143
-2.71529
-2.76928
-2.8345
-2.91096
-2.99628
-3.08655
-3.17601
-3.25873
-3.32775
-3.38114
-3.41734
-3.43297
-3.42299
-3.37818
-3.28232
-3.11074
-2.82796
-2.38622
-2.41219
-2.47769
-2.49057
-2.511
-2.53886
-2.57407
-2.61685
-2.66777
-2.72676
-2.79199
-2.85983
-2.92578
-2.98479
-3.03134
-3.06122
-3.07084
-3.05568
-3.00956
-2.92346
-2.78347
-2.57069
-2.262
-1.83363
-2.29008
-2.35584
-2.36617
-2.38249
-2.40477
-2.43285
-2.46657
-2.50576
-2.54992
-2.59755
-2.64587
-2.69114
-2.72896
-2.75435
-2.76249
-2.74924
-2.7101
-2.63877
-2.52688
-2.36398
-2.13766
-1.83475
-1.44595
-2.16573
-2.23159
-2.23969
-2.25248
-2.26991
-2.29175
-2.31748
-2.34634
-2.37752
-2.41003
-2.4419
-2.4698
-2.48949
-2.49648
-2.48644
-2.45525
-2.39852
-2.31073
-2.18509
-2.01417
-1.79052
-1.5078
-1.16359
-2.0401
-2.10564
-2.1118
-2.12144
-2.13446
-2.15049
-2.16884
-2.18863
-2.20903
-2.22921
-2.24754
-2.26101
-2.26572
-2.25777
-2.23347
-2.18905
-2.12037
-2.0229
-1.89183
-1.72231
-1.5101
-1.25261
-0.950773
-1.91406
-1.97896
-1.98336
-1.99017
-1.99914
-2.00989
-2.02182
-2.03417
-2.04604
-2.05633
-2.06341
-2.06482
-2.05738
-2.03773
-2.00267
-1.94889
-1.87293
-1.77128
-1.64065
-1.47806
-1.28132
-1.04977
-0.785613
-1.78785
-1.85226
-1.85511
-1.85941
-1.8649
-1.87123
-1.87793
-1.88426
-1.88917
-1.89131
-1.88907
-1.88056
-1.86343
-1.83495
-1.79226
-1.73258
-1.65322
-1.5516
-1.42543
-1.27291
-1.09307
-0.886246
-0.65492
-1.66108
-1.72525
-1.7268
-1.72902
-1.73169
-1.73447
-1.73686
-1.73812
-1.73719
-1.73273
-1.72325
-1.70722
-1.68289
-1.64816
-1.60073
-1.53827
-1.45866
-1.35997
-1.24063
-1.0996
-0.936651
-0.752657
-0.549829
-1.53431
-1.59784
-1.59832
-1.59888
-1.59928
-1.59916
-1.59801
-1.59512
-1.58956
-1.58015
-1.56559
-1.54451
-1.51548
-1.47692
-1.42708
-1.36416
-1.28646
-1.1925
-1.08121
-0.952071
-0.805269
-0.641803
-0.464043
-1.40922
-1.47129
-1.4709
-1.47012
-1.46869
-1.46625
-1.46234
-1.4563
-1.44733
-1.43448
-1.41662
-1.39251
-1.36091
-1.32053
-1.27006
-1.20818
-1.13364
-1.04536
-0.942637
-0.825265
-0.693658
-0.548959
-0.392949
-1.28712
-1.34729
-1.34621
-1.34435
-1.34148
-1.33727
-1.33128
-1.32296
-1.31162
-1.29645
-1.27651
-1.25074
-1.21806
-1.17738
-1.12766
-1.06796
-0.997391
-0.915274
-0.821199
-0.715164
-0.597664
-0.469719
-0.332993
-1.16815
-1.22657
-1.22496
-1.22228
-1.21832
-1.21278
-1.2053
-1.19537
-1.18242
-1.16576
-1.14462
-1.11812
-1.08538
-1.04549
-0.997608
-0.941018
-0.875126
-0.799511
-0.714013
-0.61877
-0.514293
-0.401486
-0.281789
-1.05181
-1.10884
-1.10683
-1.10355
-1.09881
-1.09236
-1.08385
-1.07289
-1.05898
-1.04154
-1.01994
-0.993476
-0.961446
-0.923138
-0.87789
-0.825147
-0.764485
-0.695655
-0.618648
-0.533687
-0.441284
-0.342219
-0.237717
-0.937611
-0.993511
-0.991252
-0.987586
-0.982362
-0.975356
-0.966285
-0.954808
-0.940511
-0.922919
-0.901522
-0.875775
-0.845123
-0.809025
-0.766978
-0.718569
-0.663498
-0.601614
-0.532981
-0.457866
-0.376742
-0.290282
-0.199525
-0.825323
-0.880239
-0.877853
-0.873999
-0.868556
-0.861332
-0.852091
-0.840555
-0.826384
-0.809198
-0.788598
-0.764158
-0.735447
-0.702067
-0.663646
-0.619891
-0.570604
-0.515701
-0.45527
-0.389589
-0.319078
-0.244306
-0.166142
-0.714815
-0.768845
-0.766436
-0.762567
-0.757133
-0.749975
-0.740906
-0.729707
-0.716106
-0.699804
-0.680493
-0.657848
-0.631544
-0.601295
-0.566833
-0.527957
-0.48455
-0.436581
-0.384148
-0.327511
-0.267043
-0.203204
-0.13671
-0.605944
-0.65919
-0.656848
-0.653103
-0.647867
-0.641016
-0.632409
-0.621875
-0.609204
-0.594175
-0.576553
-0.556094
-0.532571
-0.505781
-0.475536
-0.441707
-0.404237
-0.363132
-0.318495
-0.270559
-0.219647
-0.166145
-0.110576
-0.498568
-0.551138
-0.548943
-0.54544
-0.540561
-0.534222
-0.526315
-0.516705
-0.50525
-0.491795
-0.476173
-0.458211
-0.437756
-0.414672
-0.388837
-0.360176
-0.328678
-0.29437
-0.257352
-0.217821
-0.176057
-0.132362
-0.0871218
-0.392515
-0.444532
-0.442551
-0.439397
-0.435009
-0.429337
-0.42231
-0.413834
-0.403821
-0.392174
-0.378785
-0.363551
-0.346378
-0.327184
-0.305898
-0.282489
-0.256975
-0.229399
-0.199854
-0.168496
-0.135556
-0.101275
-0.0659068
-0.287522
-0.339165
-0.337469
-0.334744
-0.33095
-0.326066
-0.320059
-0.31288
-0.304486
-0.294827
-0.283852
-0.271515
-0.257777
-0.242602
-0.22596
-0.207854
-0.188319
-0.167415
-0.145222
-0.12186
-0.0975047
-0.0723455
-0.0465248
-0.183604
-0.234793
-0.233459
-0.231228
-0.228098
-0.224087
-0.219201
-0.21343
-0.206776
-0.199237
-0.190807
-0.181494
-0.1713
-0.16023
-0.148297
-0.135528
-0.12197
-0.107688
-0.0927562
-0.0772615
-0.0613293
-0.0450957
-0.0286161
-0.0774839
-0.131968
-0.131096
-0.129372
-0.126913
-0.123788
-0.120042
-0.115704
-0.110818
-0.105428
-0.0995719
-0.0933003
-0.0866566
-0.0796867
-0.0724414
-0.0649752
-0.057347
-0.049621
-0.0418615
-0.0341339
-0.0265134
-0.0190925
-0.0118713
404.723
5.80147
5.22748
5.23414
1090.96
695.133
311.985
6.27886
1125.44
969.547
856.782
737.241
1037.67
1005.41
981.328
973.47
215.583
799.729
1034.29
1028.26
-8.30487
-5.63778
19.6811
436.704
-9.44068
-9.62083
-9.54672
-7.78287
-9.65424
-9.83586
-9.99948
-10.0158
-9.60929
-9.85933
-10.0693
-10.3151
-10.235
-10.7611
-11.2766
-11.5927
-11.195
-11.9067
-12.2459
-8.98582
-11.7148
-12.383
-6.39811
111.506
-11.732
-12.2194
93.0912
1349.83
-11.666
-11.9902
-4.18461
1509.04
-11.846
-12.3466
-12.7606
1378.39
-12.1746
-13.7579
-13.9159
89.5849
-10.141
-11.9261
-12.7316
-1.27338
-6.40175
-6.40266
-5.95249
-4.25924
-3.95873
-3.49644
-2.80164
-1.8086
-2.59945
-2.1436
-1.58082
-0.925452
-1.82298
-1.44443
-1.01911
-0.558965
-1.34723
-1.04181
-0.713546
-0.369987
-1.03394
-0.786029
-0.525971
-0.258134
-0.815756
-0.611625
-0.400202
-0.184314
-0.655551
-0.485198
-0.310052
-0.131927
-0.532696
-0.388425
-0.241136
-0.0920144
-0.436766
-0.313275
-0.187848
-0.0614013
-0.360907
-0.254629
-0.146974
-0.0385697
-0.29999
-0.208092
-0.115076
-0.0213992
-0.250162
-0.170368
-0.0895979
-0.00826517
-0.208578
-0.139211
-0.0690023
0.00170941
-0.173409
-0.113161
-0.0522212
0.00918053
-0.143496
-0.0912557
-0.0384811
0.0146772
-0.117989
-0.0728579
-0.0273313
0.0184772
-0.0961377
-0.0574372
-0.0184452
0.0207441
-0.0773451
-0.0445639
-0.0115632
0.0215859
-0.0611072
-0.0338385
-0.00640958
0.021139
-0.0469886
-0.0249032
-0.00270677
0.0195789
-0.034651
-0.0174869
-0.00025205
0.01704
-0.0238102
-0.0113735
0.0011034
0.0136112
-0.0142227
-0.00637983
0.00148214
0.00935397
-0.00569905
-0.00236565
0.000974728
0.00431375
5.24164
5.22443
5.23404
5.26758
5.30896
5.34467
5.3672
5.37503
5.36986
5.35482
5.33311
5.30767
5.28095
5.25486
5.23091
5.21029
5.19382
5.1821
5.1755
5.36269
5.16993
5.18315
5.24279
5.31258
5.36708
5.3976
5.40546
5.39572
5.37397
5.34497
5.31255
5.27964
5.24827
5.21995
5.1959
5.17692
5.16355
5.15609
70.8102
5.0163
5.08277
5.20077
5.325
5.40673
5.44472
5.44903
5.43047
5.39821
5.35889
5.31715
5.27628
5.23837
5.20481
5.17669
5.15475
5.13946
5.13097
922.023
5.2792
4.79109
5.14155
5.36477
5.47701
5.51582
5.50852
5.47466
5.42688
5.37369
5.32012
5.26953
5.22392
5.18437
5.15169
5.12646
5.10902
5.09941
1037.89
205.271
4.32879
5.1449
5.47355
5.59533
5.61767
5.58592
5.52736
5.45803
5.38713
5.31939
5.2576
5.20337
5.15731
5.11979
5.09108
5.07136
5.06056
1071.8
805.029
6.70386
5.31506
5.67744
5.77233
5.75233
5.67842
5.58474
5.48783
5.39587
5.31215
5.23824
5.17492
5.12215
5.07973
5.04756
5.02557
5.01356
828.985
1118.94
9.64998
5.62834
6.00099
6.01584
5.91476
5.77833
5.63946
5.5103
5.39527
5.29489
5.20881
5.13656
5.0773
5.03024
4.99484
4.97073
4.9576
303.068
1177.42
31.7638
6.6051
6.55047
6.32657
6.08754
5.86954
5.67985
5.51739
5.37976
5.2637
5.1665
5.08625
5.02121
4.9701
4.93192
4.90602
4.89192
147.965
1244.06
29.304
7.95893
7.13113
6.60858
6.22298
5.92613
5.69083
5.49995
5.34355
5.2147
5.10863
5.02204
4.95247
4.89823
4.85795
4.83071
4.81589
345.102
1203.07
18.1035
8.57999
7.42141
6.7339
6.26382
5.92094
5.65817
5.44981
5.28167
5.14468
5.03298
4.94242
4.87
4.81382
4.77229
4.74427
4.72905
972.611
876.708
12.1244
8.28608
7.2768
6.63829
6.18081
5.83931
5.5739
5.36219
5.19107
5.05164
4.93818
4.84637
4.77309
4.7164
4.6746
4.64645
4.63119
1032.74
55.5095
7.93855
7.42081
6.81386
6.35721
5.98633
5.68513
5.43883
5.23691
5.07123
4.93503
4.82378
4.7336
4.66158
4.60588
4.56482
4.53722
4.5223
711.195
8.68764
6.24545
6.38957
6.23043
5.98597
5.72185
5.47644
5.26094
5.0776
4.92383
4.79573
4.69034
4.6045
4.53577
4.48254
4.44325
4.41688
4.40268
1050.38
5.07071
4.82837
5.60505
5.73189
5.61919
5.43118
5.23388
5.0505
4.8897
4.75195
4.63568
4.5392
4.46006
4.39647
4.34706
4.31049
4.28598
4.27284
1614.08
45.017
4.66251
5.38595
5.42187
5.29877
5.13601
4.97016
4.81563
4.67845
4.55916
4.45747
4.37226
4.30177
4.24487
4.20044
4.1674
4.14531
4.13353
1057.2
147.012
6.11146
5.46957
5.17865
4.98685
4.82897
4.68769
4.56074
4.44802
4.34906
4.26397
4.19179
4.13146
4.08248
4.04392
4.0151
3.99588
3.98569
3.58417
6.2879
5.47393
5.03329
4.78814
4.62105
4.49329
4.38461
4.2884
4.20208
4.12525
4.0582
4.00025
3.95121
3.91101
3.87897
3.85488
3.83886
3.83039
-1.17249
3.30422
4.18409
4.30411
4.25996
4.19326
4.12672
4.06295
4.00238
3.94479
3.89149
3.8433
3.80031
3.76323
3.73229
3.70718
3.68817
3.67554
3.66885
-0.178509
2.09849
3.13344
3.53902
3.68791
3.73654
3.74331
3.73105
3.70876
3.68106
3.65169
3.6225
3.59471
3.56979
3.54821
3.53019
3.51643
3.50725
3.50232
0.0120126
1.46166
2.37853
2.88311
3.14944
3.28979
3.36345
3.4002
3.41481
3.41618
3.40992
3.39911
3.38618
3.3731
3.36067
3.34971
3.34116
3.33533
3.33211
0.0729859
1.09394
1.85667
2.36228
2.68122
2.87987
3.00377
3.08083
3.12774
3.15528
3.17007
3.1763
3.17729
3.17526
3.17152
3.16735
3.16376
3.16109
3.15946
0.0942292
0.86255
1.49179
1.95965
2.28999
2.51784
2.67394
2.78065
2.85341
2.90276
2.93563
2.95691
2.97029
2.97821
2.98247
2.9846
2.98555
2.98577
2.98566
0.101969
0.706633
1.22968
1.64854
1.96785
2.20466
2.37799
2.50413
2.59561
2.66174
2.70927
2.74314
2.76703
2.78364
2.79504
2.80273
2.80768
2.81051
2.81183
0.10517
0.595886
1.03541
1.4054
1.7033
1.93647
2.11593
2.25263
2.35611
2.43422
2.49288
2.53663
2.5691
2.59304
2.61047
2.62285
2.63123
2.6364
2.63902
0.106709
0.513752
0.886993
1.21227
1.48491
1.70719
1.88496
2.02534
2.1354
2.22116
2.28751
2.33856
2.3777
2.40746
2.4297
2.44588
2.45714
2.46435
2.46814
0.107609
0.450426
0.770116
1.05586
1.30263
1.51018
1.68137
1.82069
1.93297
2.02259
2.0936
2.14964
2.19359
2.22761
2.25345
2.27261
2.28624
2.29514
2.29988
0.10767
0.399666
0.675435
0.926619
1.14853
1.33981
1.50161
1.63646
1.74746
1.83793
1.91119
1.97015
2.01707
2.05387
2.08228
2.10371
2.11916
2.12936
2.13483
0.106414
0.357473
0.596767
0.817834
1.0166
1.19129
1.34198
1.46996
1.57728
1.66645
1.73993
1.79988
1.84815
1.88655
1.91665
1.93963
1.95633
1.96742
1.97339
0.103959
0.321292
0.52982
0.724532
0.90199
1.06032
1.19906
1.31882
1.42095
1.50712
1.57905
1.63838
1.68678
1.72583
1.7568
1.78061
1.79799
1.80959
1.81587
0.100566
0.289425
0.471549
0.643006
0.800932
0.943572
1.07022
1.18107
1.27686
1.35864
1.42766
1.48527
1.53288
1.57173
1.60273
1.62667
1.64424
1.65603
1.66244
0.0963553
0.260726
0.419862
0.570651
0.710727
0.838514
0.953217
1.05471
1.14335
1.21982
1.28506
1.34018
1.38619
1.42396
1.45424
1.47774
1.49508
1.50679
1.51317
0.0914344
0.234412
0.373272
0.505533
0.62924
0.743
0.84601
0.937992
1.01908
1.08973
1.15064
1.20255
1.24614
1.28209
1.31106
1.33366
1.35044
1.36181
1.36803
0.0859165
0.209914
0.330656
0.446143
0.554765
0.655315
0.747035
0.829598
0.903003
0.96751
1.02353
1.07155
1.11208
1.14565
1.17286
1.19422
1.21015
1.22097
1.22689
0.0798464
0.186808
0.291192
0.391381
0.486052
0.57418
0.655077
0.728395
0.794025
0.85206
0.902728
0.946362
0.983368
1.0142
1.03933
1.05913
1.07395
1.08404
1.08957
0.073209
0.16474
0.254223
0.340358
0.422054
0.498451
0.568944
0.633166
0.69094
0.742273
0.787294
0.82625
0.859464
0.887284
0.910045
0.928045
0.941546
0.950746
0.955798
0.0659413
0.143355
0.219131
0.292232
0.361763
0.427015
0.487461
0.542748
0.592683
0.637236
0.676488
0.710611
0.739835
0.764408
0.78458
0.80057
0.812582
0.820784
0.825289
0.0579999
0.122338
0.185357
0.246244
0.304281
0.358893
0.409634
0.456196
0.498401
0.536198
0.569632
0.598814
0.623894
0.645038
0.662433
0.676255
0.686657
0.693766
0.697672
0.0494052
0.10147
0.152487
0.201826
0.248931
0.293348
0.334718
0.372787
0.407398
0.438494
0.466085
0.49024
0.511056
0.528645
0.543134
0.554671
0.563368
0.569312
0.572582
0.0401912
0.0806074
0.120215
0.158543
0.195181
0.229785
0.262078
0.291862
0.319007
0.343455
0.365195
0.384268
0.400739
0.414684
0.426188
0.435358
0.442278
0.447011
0.449617
0.0303679
0.0596172
0.0882743
0.116015
0.142559
0.167659
0.191116
0.212786
0.232575
0.250427
0.266326
0.280298
0.292381
0.302624
0.311091
0.317843
0.322938
0.326431
0.328352
0.0199175
0.0383564
0.0564077
0.073883
0.0906134
0.106444
0.121255
0.134953
0.147477
0.158789
0.168875
0.177748
0.185428
0.191944
0.197339
0.201644
0.204894
0.207121
0.208348
0.00881547
0.016676
0.024357
0.0317907
0.0389074
0.0456434
0.0519503
0.057789
0.0631283
0.067955
0.0722638
0.0760537
0.0793343
0.0821229
0.0844331
0.0862775
0.0876729
0.0886238
0.0891546
2148.3
2149.44
2147.41
2145.05
2143.03
2141.05
2138.95
2136.85
2135.12
2134.44
2135.95
2141.48
2153.77
2176.7
2215.41
2276.67
2368.71
2498.4
2667.49
2835.18
2906.44
2818.66
3028.13
2147.06
2148.17
2146.15
2143.81
2141.76
2139.71
2137.51
2135.3
2133.43
2132.55
2133.81
2139.02
2150.9
2173.29
2211.28
2271
2359.19
2481.41
2635.1
2797.25
2903.75
2769.63
2983.4
2144.18
2145.22
2143.21
2140.9
2138.78
2136.57
2134.17
2131.68
2129.46
2128.14
2128.83
2133.29
2144.21
2165.36
2201.74
2259.25
2343.89
2459.27
2599.86
2740.41
2840.66
2844.06
3063.5
2139.68
2140.61
2138.63
2136.35
2134.11
2131.65
2128.91
2126.01
2123.24
2121.22
2120.99
2124.27
2133.66
2152.87
2186.74
2240.96
2320.91
2429.16
2559.94
2693.23
2802.8
2912.36
3160.21
2133.64
2134.4
2132.45
2130.18
2127.76
2124.97
2121.77
2118.28
2114.76
2111.77
2110.29
2111.93
2119.2
2135.7
2166.14
2215.98
2290.24
2391.03
2513.4
2642.32
2763.15
2901.4
3132.52
2126.1
2126.64
2124.72
2122.42
2119.76
2116.54
2112.76
2108.52
2104.04
2099.81
2096.7
2096.22
2100.75
2113.72
2139.73
2184.07
2251.57
2344.32
2458.46
2582.55
2706.59
2842.73
3009.04
2117.13
2117.41
2115.5
2113.14
2110.14
2106.39
2101.9
2096.75
2091.09
2085.33
2080.22
2077.12
2078.22
2086.8
2107.29
2144.88
2204.38
2288.04
2393.01
2509.36
2624.9
2732.06
2796.53
2106.85
2106.78
2104.86
2102.36
2098.96
2094.57
2089.24
2082.99
2075.93
2068.34
2060.83
2054.56
2051.5
2054.7
2068.44
2097.83
2147.75
2220.83
2314.83
2419.45
2514.69
2559.69
2397.18
5.27314
5.27888
5.28849
5.30079
5.31362
5.32436
5.33092
5.33213
5.3278
5.31845
5.30517
5.28927
5.27218
5.25522
5.23951
5.22606
5.21564
5.20879
5.20583
5.27227
5.2781
5.28789
5.30056
5.31379
5.32486
5.3316
5.33286
5.32846
5.31897
5.3055
5.28942
5.27216
5.25503
5.2392
5.22565
5.21515
5.20826
5.20527
5.27039
5.27639
5.28657
5.30009
5.31429
5.32612
5.33327
5.33461
5.33003
5.32017
5.30624
5.2897
5.27202
5.25452
5.23838
5.22458
5.2139
5.20688
5.20385
5.26745
5.27352
5.28434
5.29932
5.31513
5.3282
5.33602
5.33746
5.33253
5.32206
5.30738
5.29011
5.27176
5.25366
5.23704
5.22286
5.21189
5.20467
5.20155
5.26343
5.26954
5.28113
5.29821
5.31633
5.33117
5.33992
5.34147
5.33602
5.32465
5.30896
5.29066
5.27135
5.25244
5.23515
5.22045
5.20908
5.2016
5.19837
5.25802
5.26358
5.27659
5.2967
5.31796
5.33513
5.34506
5.3467
5.34053
5.32801
5.311
5.29135
5.27079
5.25084
5.23269
5.21732
5.20546
5.19766
5.19428
5.2516
5.25552
5.27055
5.29473
5.32013
5.34028
5.3516
5.35325
5.34615
5.33217
5.31349
5.29217
5.27009
5.24883
5.22962
5.21343
5.20098
5.1928
5.18927
5.2446
5.24475
5.26257
5.29225
5.32306
5.34687
5.35978
5.36128
5.35294
5.33714
5.31641
5.2931
5.2692
5.24637
5.22589
5.20872
5.19558
5.18699
5.18328
2091.86
2091.3
2089.36
2086.58
2082.53
2077.19
2070.6
2062.74
2053.59
2043.29
2032.2
2021.15
2011.75
2006.7
2009.97
2026.52
2061.35
2117.79
2194.19
2278.28
2335.26
2255.71
1385.43
2062.55
2061.22
2058.9
2055.28
2049.78
2042.43
2033.2
2021.92
2008.35
1992.24
1973.42
1951.96
1928.48
1904.73
1883.95
1870.7
1870.2
1887.16
1923.11
1965.7
1969.84
1818.98
1421.83
2028.81
2026.57
2023.58
2018.66
2011.25
2001.38
1988.86
1973.31
1954.2
1930.81
1902.19
1867.24
1825
1775.52
1720.51
1663.24
1608.11
1562.51
1528.04
1530.81
1554.8
1479.86
1253.03
1991.53
1988.32
1984.32
1977.69
1967.99
1955.1
1938.65
1918.02
1892.32
1860.22
1819.78
1768.23
1702.09
1618.48
1516.54
1395.85
1241.26
983.287
662.469
276.702
411.157
834.57
1057.66
1951.66
1947.48
1942.18
1933.56
1921.24
1904.93
1884.03
1857.65
1824.45
1782.39
1728.31
1657.27
1561.48
1436.24
1272.03
933.326
29.4504
-7.0446
-7.33156
-7.39629
-7.46498
-5.57883
69.0795
1910.2
1905.11
1898.34
1887.57
1872.46
1852.5
1826.85
1794.27
1752.99
1700.12
1630.93
1538.77
1407.86
1157.21
90.9634
-6.29974
-6.88385
-7.20022
-7.46328
-7.70123
-7.97572
-8.32173
-8.5114
1868.17
1862.32
1854.04
1841.14
1823.24
1799.66
1769.27
1730.51
1681.21
1617.87
1534.35
1413.96
592.834
-5.19583
-6.35713
-6.72714
-7.00314
-7.26721
-7.53484
-7.82912
-8.1779
-8.65561
-9.26333
1826.72
1820.26
1810.62
1795.76
1775.21
1748.36
1713.64
1669.33
1613.05
1540.03
1342.88
115.019
-5.27859
-6.29123
-6.56803
-6.79831
-7.0281
-7.30025
-7.61014
-7.96395
-8.3825
-8.91409
-9.49334
1786.16
1779.61
1769.08
1752.71
1729.61
1700.92
1662.35
1612.43
1391.73
469.613
-4.09594
-4.14264
-0.0831323
-6.42465
-6.59099
-6.77554
-7.02013
-7.31667
-7.66484
-8.0686
-8.52838
-9.01216
-9.43692
1749.29
1741.21
1729.05
1708.41
1602.66
1297.72
668.518
83.4372
-4.77269
-4.49809
-4.34444
-4.3345
4.0664
-6.33926
-6.49684
-6.70754
-6.9732
-7.29719
-7.68418
-8.13976
-8.66534
-9.24452
-9.87638
177.357
207.746
97.5553
-3.11779
-3.34496
-3.78419
-3.83003
-4.12304
-4.44459
-4.53209
-4.48918
-4.5152
0.31247
-6.15812
-6.35285
-6.58927
-6.87794
-7.23026
-7.65705
-8.17272
-8.79704
-9.57086
-10.6333
-3.10373
-3.15702
-3.23815
-3.30238
-3.41957
-3.64252
-3.86415
-4.13711
-4.44593
-4.6503
-4.69492
-4.69036
-0.975126
-5.95787
-6.16955
-6.4225
-6.73019
-7.10659
-7.56946
-8.14239
-8.86177
-9.79396
-11.0906
-3.12102
-3.1577
-3.21956
-3.30218
-3.42597
-3.60937
-3.85256
-4.18334
-4.62136
-4.99122
-5.11946
-5.12602
-4.46267
-5.71579
-5.95619
-6.20948
-6.52742
-6.9176
-7.40465
-8.01902
-8.80902
-9.83761
-11.1816
-3.12045
-3.14968
-3.20438
-3.28722
-3.40713
-3.5817
-3.83474
-4.24808
-4.89839
-4.23567
-4.40704
-5.39998
-5.30165
-5.50216
-5.69683
-5.95589
-6.26882
-6.6567
-7.14711
-7.77989
-8.61837
-9.72148
-11.1299
-3.09614
-3.12223
-3.17269
-3.25004
-3.36371
-3.52785
-3.77483
-4.23659
-3.58032
-4.2036
-5.2934
-5.37152
-5.23194
-5.27621
-5.43818
-5.66808
-5.95732
-6.32011
-6.78438
-7.39785
-8.24191
-9.44443
-11.1408
-3.04956
-3.07432
-3.12036
-3.19143
-3.29378
-3.44191
-3.66122
-4.07407
-4.58288
-4.97455
-5.15549
-5.03283
-4.96861
-5.01497
-5.14997
-5.34561
-5.59602
-5.91042
-6.31278
-6.84976
-7.61292
-8.80182
-10.8953
-2.9844
-3.00729
-3.04836
-3.11031
-3.19903
-3.32548
-3.50553
-3.82532
-4.24869
-4.13992
-1.4735
-4.66112
-4.64802
-4.71102
-4.82861
-4.98955
-5.19102
-5.43811
-5.74562
-6.14456
-6.69558
-7.53445
-9.09261
-2.90333
-2.92304
-2.95832
-3.01063
-3.08441
-3.18549
-3.32009
-3.51666
-3.82368
-0.913569
-0.854328
-3.79456
-4.29291
-4.37481
-4.4796
-4.60642
-4.75448
-4.92444
-5.12006
-5.34891
-5.62
-5.94141
-6.31098
-2.80894
-2.8252
-2.85462
-2.8985
-2.95845
-3.03743
-3.13786
-3.26199
-3.4174
-3.57503
-3.7152
-3.82015
-3.93149
-4.02495
-4.11585
-4.20884
-4.30382
-4.39764
-4.48493
-4.55517
-4.58321
-4.51479
-4.20985
-2.70389
-2.71738
-2.74218
-2.77851
-2.82691
-2.88859
-2.96493
-3.057
-3.16328
-3.27697
-3.39229
-3.50243
-3.60139
-3.68303
-3.75287
-3.81174
-3.85755
-3.88479
-3.88244
-3.83131
-3.69703
-3.42094
-2.89506
-2.59152
-2.60285
-2.62331
-2.65305
-2.69216
-2.74095
-2.80043
-2.87142
-2.95272
-3.04113
-3.13171
-3.21871
-3.29517
-3.35646
-3.40155
-3.428
-3.43162
-3.40577
-3.33795
-3.20789
-2.98597
-2.63059
-2.08672
-2.47403
-2.48319
-2.49985
-2.52401
-2.55554
-2.59447
-2.64127
-2.69632
-2.75879
-2.82586
-2.89333
-2.95652
-3.00992
-3.04859
-3.06881
-3.06669
-3.03697
-2.97225
-2.86129
-2.68752
-2.42987
-2.06422
-1.56836
-2.35289
-2.36026
-2.37358
-2.39289
-2.4181
-2.44902
-2.4855
-2.52728
-2.57345
-2.62185
-2.66914
-2.71129
-2.74353
-2.76084
-2.7588
-2.73325
-2.67893
-2.5885
-2.45254
-2.25959
-1.99655
-1.65136
-1.21768
-2.22927
-2.23505
-2.24551
-2.26063
-2.28031
-2.30418
-2.33157
-2.36169
-2.3937
-2.42622
-2.45659
-2.48095
-2.49485
-2.49385
-2.47374
-2.4304
-2.35891
-2.25309
-2.10575
-1.90937
-1.65682
-1.34349
-0.968949
-2.10388
-2.10828
-2.11619
-2.12755
-2.14213
-2.15943
-2.17861
-2.1988
-2.21923
-2.23877
-2.25512
-2.26471
-2.26356
-2.2479
-2.21403
-2.15801
-2.07553
-1.96188
-1.81216
-1.62175
-1.38706
-1.10704
-0.784485
-1.97769
-1.98085
-1.98647
-1.9944
-2.00432
-2.01575
-2.028
-2.04023
-2.05147
-2.0604
-2.06501
-2.06242
-2.04928
-2.02233
-1.97833
-1.9139
-1.82552
-1.70979
-1.56351
-1.38405
-1.16986
-0.921553
-0.642586
-1.85141
-1.85349
-1.8571
-1.86203
-1.86799
-1.87458
-1.8812
-1.88697
-1.89068
-1.89084
-1.88573
-1.87324
-1.85079
-1.81555
-1.76471
-1.69553
-1.60535
-1.49172
-1.35255
-1.18642
-0.992951
-0.773447
-0.531217
-1.72479
-1.72593
-1.72784
-1.73032
-1.73309
-1.73575
-1.73769
-1.73801
-1.73549
-1.72871
-1.71616
-1.69622
-1.66696
-1.62618
-1.57151
-1.50074
-1.41181
-1.30297
-1.17286
-1.02084
-0.847175
-0.653378
-0.442448
-1.59768
-1.59806
-1.59861
-1.59912
-1.59931
-1.59875
-1.59684
-1.59274
-1.58541
-1.5736
-1.55595
-1.53109
-1.4975
-1.45353
-1.39737
-1.32726
-1.24159
-1.13907
-1.01888
-0.880833
-0.725526
-0.554571
-0.37062
-1.47138
-1.47113
-1.47057
-1.4695
-1.46762
-1.46451
-1.45963
-1.45224
-1.44146
-1.42625
-1.40542
-1.37773
-1.3419
-1.29664
-1.24063
-1.17257
-1.09127
-0.995831
-0.885772
-0.761187
-0.622837
-0.472191
-0.311517
-1.34758
-1.34684
-1.34539
-1.34306
-1.33957
-1.33453
-1.32745
-1.31771
-1.30457
-1.28714
-1.26442
-1.23533
-1.19878
-1.15371
-1.09912
-1.03408
-0.957809
-0.869743
-0.769657
-0.657794
-0.534909
-0.402326
-0.261955
-1.22702
-1.22589
-1.22376
-1.22047
-1.21577
-1.20931
-1.20067
-1.18931
-1.1746
-1.15581
-1.1321
-1.10259
-1.06638
-1.02259
-0.970442
-0.909266
-0.83855
-0.757999
-0.667587
-0.567638
-0.458853
-0.3424
-0.219841
-1.1094
-1.10799
-1.10536
-1.10138
-1.09582
-1.08838
-1.07871
-1.06634
-1.05074
-1.0313
-1.00736
-0.978202
-0.943118
-0.901418
-0.852485
-0.795826
-0.731096
-0.658166
-0.577136
-0.488372
-0.392518
-0.290564
-0.183818
-0.994141
-0.992549
-0.989602
-0.98518
-0.979098
-0.971096
-0.960871
-0.948039
-0.932158
-0.912728
-0.889227
-0.861095
-0.827789
-0.788773
-0.743592
-0.69188
-0.633409
-0.568129
-0.496211
-0.418016
-0.334126
-0.245369
-0.152857
-0.880902
-0.879223
-0.876115
-0.871485
-0.86518
-0.85698
-0.846629
-0.833822
-0.818192
-0.79935
-0.776885
-0.750363
-0.719364