/*--------------------------------*- C++ -*----------------------------------*\
| =========                 |                                                 |
| \\      /  F ield         | OpenFOAM: The Open Source CFD Toolbox           |
|  \\    /   O peration     | Version:  v1912                                 |
|   \\  /    A nd           | Website:  www.openfoam.com                      |
|    \\/     M anipulation  |                                                 |
\*---------------------------------------------------------------------------*/
FoamFile
{
    version     2.0;
    format      ascii;
    class       surfaceScalarField;
    location    "0.2";
    object      phi;
}
// * * * * * * * * * * * * * * * * * * * * * * * * * * * * * * * * * * * * * //

dimensions      [0 3 -1 0 0 0 0];
oriented        oriented;


internalField   nonuniform List<scalar> 
17936
(
4.42336e-07
-9.00722e-07
4.58386e-07
-1.88348e-06
3.58139e-06
-1.69791e-06
-5.18679e-06
6.63445e-06
-1.44766e-06
-7.97113e-06
9.26009e-06
-1.28897e-06
-1.05466e-05
1.18528e-05
-1.30619e-06
-1.31851e-05
1.45423e-05
-1.3572e-06
-1.59213e-05
1.73192e-05
-1.39788e-06
-1.87336e-05
2.01627e-05
-1.4291e-06
-2.16044e-05
2.30562e-05
-1.45181e-06
-2.45147e-05
2.59755e-05
-1.46073e-06
-2.74327e-05
2.88791e-05
-1.4464e-06
-3.03063e-05
3.17033e-05
-1.39703e-06
-3.30574e-05
3.43535e-05
-1.29602e-06
-3.55735e-05
3.66971e-05
-1.12362e-06
-3.77001e-05
3.85545e-05
-8.54358e-07
-3.92276e-05
3.96765e-05
-4.48863e-07
-3.98207e-05
3.95144e-05
3.06275e-07
-3.85457e-05
3.66988e-05
1.84694e-06
-3.37025e-05
2.9195e-05
4.50745e-06
-2.27795e-05
1.43378e-05
8.44178e-06
-4.68236e-06
-3.73132e-06
8.41368e-06
9.17349e-06
-1.5156e-05
5.98253e-06
2.29963e-05
-1.71913e-05
-5.80506e-06
1.36399e-06
-1.83574e-06
4.71748e-07
-1.91992e-06
3.63295e-06
3.41583e-06
-5.12887e-06
-5.25475e-06
6.71849e-06
2.91715e-06
-4.38089e-06
-8.07209e-06
9.3799e-06
2.59867e-06
-3.90648e-06
-1.06862e-05
1.20121e-05
2.6324e-06
-3.95829e-06
-1.33635e-05
1.47393e-05
2.73387e-06
-4.10966e-06
-1.61365e-05
1.75525e-05
2.81504e-06
-4.23101e-06
-1.89851e-05
2.04326e-05
2.87752e-06
-4.32504e-06
-2.18931e-05
2.33643e-05
2.9232e-06
-4.39438e-06
-2.48428e-05
2.63245e-05
2.94158e-06
-4.42321e-06
-2.78037e-05
2.92732e-05
2.91386e-06
-4.38344e-06
-3.07251e-05
3.21486e-05
2.8167e-06
-4.2402e-06
-3.35313e-05
3.48584e-05
2.61715e-06
-3.94431e-06
-3.61126e-05
3.72739e-05
2.27608e-06
-3.43741e-06
-3.83189e-05
3.92206e-05
1.74329e-06
-2.64505e-06
-3.99487e-05
4.04696e-05
9.47871e-07
-1.46884e-06
-4.07419e-05
4.07241e-05
-2.14123e-07
2.31932e-07
-4.03765e-05
3.96972e-05
-2.03898e-06
2.71822e-06
-3.87345e-05
3.76246e-05
-5.54423e-06
6.6541e-06
-3.65478e-05
3.53535e-05
-1.27827e-05
1.3977e-05
-3.29055e-05
2.68576e-05
-1.99364e-05
2.59843e-05
-1.59902e-05
3.52955e-06
-1.75548e-05
3.00155e-05
3.94327e-06
-3.45245e-06
1.0467e-05
-1.09578e-05
2.31816e-06
-2.81313e-06
4.94975e-07
-1.94083e-06
3.64014e-06
6.83604e-06
-8.53535e-06
-5.24204e-06
6.68901e-06
5.83743e-06
-7.2844e-06
-8.03344e-06
9.33913e-06
5.21334e-06
-6.51904e-06
-1.06473e-05
1.19761e-05
5.28548e-06
-6.61423e-06
-1.33297e-05
1.47068e-05
5.48603e-06
-6.86308e-06
-1.61046e-05
1.75209e-05
5.64715e-06
-7.06353e-06
-1.89543e-05
2.04034e-05
5.77318e-06
-7.22223e-06
-2.18665e-05
2.33418e-05
5.86725e-06
-7.34249e-06
-2.4826e-05
2.63153e-05
5.90804e-06
-7.39729e-06
-2.78043e-05
2.92862e-05
5.85819e-06
-7.3401e-06
-3.07533e-05
3.21952e-05
5.67143e-06
-7.11335e-06
-3.35999e-05
3.49532e-05
5.28244e-06
-6.63567e-06
-3.62378e-05
3.74347e-05
4.61376e-06
-5.81067e-06
-3.8521e-05
3.94708e-05
3.56731e-06
-4.51709e-06
-4.02548e-05
4.08401e-05
2.01728e-06
-2.60255e-06
-4.11897e-05
4.12634e-05
-2.10889e-07
1.37164e-07
-4.10189e-05
4.04166e-05
-3.41233e-06
4.01471e-06
-3.94228e-05
3.80238e-05
-8.12613e-06
9.52512e-06
-3.6271e-05
3.44032e-05
-1.533e-05
1.71978e-05
-3.30422e-05
3.26557e-05
-2.74342e-05
2.78208e-05
-3.22914e-05
3.00793e-05
-3.6959e-05
3.91712e-05
-2.42403e-05
1.25825e-05
2.87906e-06
8.77877e-06
3.32235e-06
-3.84777e-06
5.25418e-07
-1.97127e-06
3.65021e-06
1.02251e-05
-1.1904e-05
-5.22159e-06
6.64348e-06
8.71967e-06
-1.01416e-05
-7.97485e-06
9.27775e-06
7.82332e-06
-9.12622e-06
-1.05886e-05
1.19214e-05
7.94477e-06
-9.27757e-06
-1.32784e-05
1.46576e-05
8.24098e-06
-9.62022e-06
-1.60569e-05
1.7475e-05
8.4804e-06
-9.89842e-06
-1.89109e-05
2.03639e-05
8.67278e-06
-1.01258e-05
-2.1833e-05
2.33166e-05
8.82115e-06
-1.03047e-05
-2.48119e-05
2.63155e-05
8.89269e-06
-1.03963e-05
-2.78225e-05
2.93266e-05
8.8317e-06
-1.03358e-05
-3.08205e-05
3.22945e-05
8.56951e-06
-1.00436e-05
-3.37373e-05
3.51351e-05
8.00877e-06
-9.40652e-06
-3.64714e-05
3.77279e-05
7.0343e-06
-8.29079e-06
-3.88826e-05
3.99105e-05
5.50206e-06
-6.53e-06
-4.07836e-05
4.14703e-05
3.23377e-06
-3.9205e-06
-4.19359e-05
4.21437e-05
-1.52369e-09
-2.06241e-07
-4.20565e-05
4.16407e-05
-4.52586e-06
4.94162e-06
-4.0872e-05
3.97421e-05
-1.07778e-05
1.19077e-05
-3.82645e-05
3.64653e-05
-1.91125e-05
2.09117e-05
-3.43951e-05
3.2388e-05
-2.89926e-05
3.09997e-05
-3.1218e-05
3.06603e-05
-3.93608e-05
3.99185e-05
-2.72513e-05
1.63574e-05
-2.08612e-05
3.1755e-05
4.39167e-06
-4.95683e-06
5.65162e-07
-2.01247e-06
3.66478e-06
1.35707e-05
-1.5223e-05
-5.19663e-06
6.58743e-06
1.15486e-05
-1.29394e-05
-7.90385e-06
9.20464e-06
1.0428e-05
-1.17288e-05
-1.05197e-05
1.18581e-05
1.06131e-05
-1.19515e-05
-1.32196e-05
1.46022e-05
1.10012e-05
-1.23837e-05
-1.60043e-05
1.74255e-05
1.13181e-05
-1.27394e-05
-1.8866e-05
2.03255e-05
1.15821e-05
-1.30417e-05
-2.18037e-05
2.32993e-05
1.17942e-05
-1.32898e-05
-2.48103e-05
2.63336e-05
1.19094e-05
-1.34327e-05
-2.78651e-05
2.93991e-05
1.18543e-05
-1.33883e-05
-3.09291e-05
3.24462e-05
1.15383e-05
-1.30554e-05
-3.39399e-05
3.53972e-05
1.08327e-05
-1.229e-05
-3.68027e-05
3.81392e-05
9.58522e-06
-1.09216e-05
-3.93857e-05
4.05187e-05
7.60767e-06
-8.74068e-06
-4.15114e-05
4.23339e-05
4.6715e-06
-5.49403e-06
-4.29534e-05
4.33352e-05
4.96624e-07
-8.78448e-07
-4.34443e-05
4.32469e-05
-5.25289e-06
5.45029e-06
-4.27131e-05
4.18194e-05
-1.29225e-05
1.38162e-05
-4.05513e-05
3.89024e-05
-2.26227e-05
2.42716e-05
-3.68567e-05
3.43022e-05
-3.34065e-05
3.5961e-05
-3.11462e-05
2.76503e-05
-4.19476e-05
4.54434e-05
-2.30159e-05
1.42014e-05
-4.13301e-05
5.01446e-05
5.54571e-06
-6.16031e-06
6.14599e-07
-2.06255e-06
3.67896e-06
1.68586e-05
-1.8475e-05
-5.16237e-06
6.51748e-06
1.43129e-05
-1.5668e-05
-7.8179e-06
9.11684e-06
1.30287e-05
-1.43277e-05
-1.04361e-05
1.17792e-05
1.32925e-05
-1.46356e-05
-1.31439e-05
1.45281e-05
1.37675e-05
-1.51517e-05
-1.59315e-05
1.73547e-05
1.41618e-05
-1.5585e-05
-1.87987e-05
2.02643e-05
1.45044e-05
-1.59699e-05
-2.17514e-05
2.32597e-05
1.47917e-05
-1.63e-05
-2.47876e-05
2.63329e-05
1.49667e-05
-1.6512e-05
-2.78922e-05
2.94608e-05
1.49389e-05
-1.65076e-05
-3.10332e-05
3.26015e-05
1.45971e-05
-1.61653e-05
-3.4156e-05
3.5685e-05
1.37816e-05
-1.53106e-05
-3.71743e-05
3.86078e-05
1.23044e-05
-1.37378e-05
-3.99659e-05
4.12262e-05
9.93456e-06
-1.11949e-05
-4.23634e-05
4.33486e-05
6.39462e-06
-7.37989e-06
-4.41507e-05
4.47366e-05
1.35883e-06
-1.94478e-06
-4.50719e-05
4.51215e-05
-5.52697e-06
5.47736e-06
-4.48494e-05
4.42178e-05
-1.45814e-05
1.5213e-05
-4.31845e-05
4.16949e-05
-2.58509e-05
2.73405e-05
-3.96717e-05
3.69882e-05
-3.85939e-05
4.12773e-05
-3.33275e-05
2.82906e-05
-4.99423e-05
5.49793e-05
-2.17667e-05
1.29242e-05
-5.87676e-05
6.76101e-05
6.80194e-06
-7.47174e-06
6.69797e-07
-2.11578e-06
3.68797e-06
2.00703e-05
-2.16424e-05
-5.11686e-06
6.43391e-06
1.70042e-05
-1.83213e-05
-7.71797e-06
9.01462e-06
1.56255e-05
-1.69222e-05
-1.03367e-05
1.16824e-05
1.59803e-05
-1.7326e-05
-1.30479e-05
1.44316e-05
1.6536e-05
-1.79197e-05
-1.58344e-05
1.72584e-05
1.70087e-05
-1.84326e-05
-1.87053e-05
2.01766e-05
1.74383e-05
-1.89097e-05
-2.16731e-05
2.31951e-05
1.7815e-05
-1.93369e-05
-2.47418e-05
2.63119e-05
1.80694e-05
-1.96395e-05
-2.79031e-05
2.95116e-05
1.80955e-05
-1.97041e-05
-3.11331e-05
3.2761e-05
1.77624e-05
-1.93903e-05
-3.43868e-05
3.60002e-05
1.68803e-05
-1.84937e-05
-3.75882e-05
3.91361e-05
1.52265e-05
-1.67744e-05
-4.06257e-05
4.20359e-05
1.25275e-05
-1.39377e-05
-4.33425e-05
4.45186e-05
8.45699e-06
-9.63308e-06
-4.55343e-05
4.63573e-05
2.64467e-06
-3.46766e-06
-4.6951e-05
4.72769e-05
-5.29441e-06
4.96848e-06
-4.72912e-05
4.69449e-05
-1.57061e-05
1.60524e-05
-4.61807e-05
4.49251e-05
-2.87219e-05
2.99776e-05
-4.30684e-05
4.0445e-05
-4.39636e-05
4.6587e-05
-3.67832e-05
3.15484e-05
-6.02266e-05
6.54614e-05
-2.4142e-05
1.43779e-05
-7.69024e-05
8.66665e-05
8.17108e-06
-8.90131e-06
7.3023e-07
-2.16998e-06
3.68901e-06
2.31892e-05
-2.47082e-05
-5.05916e-06
6.3381e-06
1.96191e-05
-2.0898e-05
-7.60653e-06
8.90035e-06
1.82175e-05
-1.95113e-05
-1.02231e-05
1.15682e-05
1.86718e-05
-2.0017e-05
-1.29313e-05
1.43118e-05
1.93022e-05
-2.06827e-05
-1.5712e-05
1.71351e-05
1.98563e-05
-2.12793e-05
-1.85837e-05
2.00599e-05
2.03836e-05
-2.18599e-05
-2.15653e-05
2.3101e-05
2.08657e-05
-2.24013e-05
-2.4667e-05
2.62633e-05
2.12226e-05
-2.28188e-05
-2.78886e-05
2.95404e-05
2.13339e-05
-2.29857e-05
-3.12159e-05
3.29096e-05
2.10504e-05
-2.27441e-05
-3.46147e-05
3.63224e-05
2.0153e-05
-2.18607e-05
-3.80211e-05
3.96977e-05
1.83851e-05
-2.00616e-05
-4.13352e-05
4.29142e-05
1.54301e-05
-1.70091e-05
-4.44128e-05
4.58064e-05
1.09148e-05
-1.23083e-05
-4.70665e-05
4.81609e-05
4.42231e-06
-5.51668e-06
-4.90508e-05
4.96924e-05
-4.48937e-06
3.84778e-06
-5.00366e-05
5.00254e-05
-1.62388e-05
1.625e-05
-4.95925e-05
4.86586e-05
-3.10861e-05
3.202e-05
-4.712e-05
4.48267e-05
-4.90786e-05
5.1372e-05
-4.15376e-05
3.68563e-05
-7.05094e-05
7.51907e-05
-2.97597e-05
1.99157e-05
-9.683e-05
0.000106674
5.30112e-07
-8.35471e-07
3.05359e-07
-1.0779e-06
1.57721e-06
-4.99316e-07
-2.04155e-06
2.4771e-06
-4.35552e-07
-2.88668e-06
3.2725e-06
-3.85816e-07
-3.64058e-06
3.98973e-06
-3.4915e-07
-4.31319e-06
4.60117e-06
-2.87982e-07
-4.84664e-06
5.04807e-06
-2.0143e-07
-5.20327e-06
5.31133e-06
-1.08056e-07
-5.37244e-06
5.38816e-06
-1.57258e-08
-5.35956e-06
5.29156e-06
6.79962e-08
-5.18603e-06
5.04708e-06
1.38953e-07
-4.87643e-06
4.67877e-06
1.97659e-07
-4.45579e-06
4.21153e-06
2.44263e-07
-3.9482e-06
3.66848e-06
2.79719e-07
-3.37405e-06
3.06706e-06
3.0699e-07
-2.74896e-06
2.42299e-06
3.25974e-07
-2.08829e-06
1.7475e-06
3.40789e-07
-1.40181e-06
1.05187e-06
3.49938e-07
-6.98527e-07
3.45387e-07
3.5314e-07
1.19473e-06
-1.56496e-06
3.70237e-07
-8.83945e-07
1.48414e-06
1.06365e-06
-1.66384e-06
-2.09087e-06
2.68211e-06
1.02434e-06
-1.61558e-06
-3.2462e-06
3.77371e-06
9.22153e-07
-1.44967e-06
-4.26933e-06
4.72878e-06
8.03076e-07
-1.26252e-06
-5.14498e-06
5.51502e-06
6.48826e-07
-1.01887e-06
-5.83249e-06
6.0934e-06
4.60898e-07
-7.21806e-07
-6.29573e-06
6.43765e-06
2.49682e-07
-3.91602e-07
-6.52058e-06
6.54581e-06
4.54389e-08
-7.0665e-08
-6.51948e-06
6.44179e-06
-1.41339e-07
2.19029e-07
-6.31755e-06
6.1509e-06
-3.01394e-07
4.68044e-07
-5.94533e-06
5.706e-06
-4.32392e-07
6.71718e-07
-5.43532e-06
5.13799e-06
-5.34714e-07
8.32036e-07
-4.81698e-06
4.47549e-06
-6.13941e-07
9.55435e-07
-4.11596e-06
3.74118e-06
-6.74019e-07
1.04879e-06
-3.35337e-06
2.95386e-06
-7.17306e-07
1.11682e-06
-2.54586e-06
2.12999e-06
-7.48409e-07
1.16428e-06
-1.70792e-06
1.28097e-06
-7.67953e-07
1.19491e-06
-8.5103e-07
4.18614e-07
-7.76756e-07
1.20917e-06
1.90317e-06
-2.1869e-06
2.8373e-07
-8.42218e-07
1.46005e-06
2.26785e-06
-2.88568e-06
-2.105e-06
2.71313e-06
2.21094e-06
-2.81906e-06
-3.27869e-06
3.80971e-06
1.97739e-06
-2.50841e-06
-4.31245e-06
4.78117e-06
1.72574e-06
-2.19446e-06
-5.20762e-06
5.58462e-06
1.39184e-06
-1.76884e-06
-5.90552e-06
6.16726e-06
9.82348e-07
-1.24409e-06
-6.36739e-06
6.506e-06
5.32152e-07
-6.7076e-07
-6.58455e-06
6.60571e-06
9.40837e-08
-1.15243e-07
-6.57246e-06
6.48887e-06
-2.99571e-07
3.83165e-07
-6.35918e-06
6.18706e-06
-6.37269e-07
8.09396e-07
-5.97675e-06
5.73353e-06
-9.1303e-07
1.15626e-06
-5.45972e-06
5.15854e-06
-1.13079e-06
1.43197e-06
-4.83529e-06
4.49035e-06
-1.29796e-06
1.64291e-06
-4.12956e-06
3.75287e-06
-1.42444e-06
1.80113e-06
-3.36323e-06
2.96263e-06
-1.5168e-06
1.91739e-06
-2.55284e-06
2.1355e-06
-1.58086e-06
1.9982e-06
-1.71231e-06
1.28436e-06
-1.62227e-06
2.05023e-06
-8.52978e-07
4.19547e-07
-1.64229e-06
2.07572e-06
2.38949e-06
-2.45434e-06
6.48527e-08
-6.45202e-07
1.32845e-06
3.53253e-06
-4.21577e-06
-2.09772e-06
2.74588e-06
3.44286e-06
-4.09101e-06
-3.3185e-06
3.85532e-06
3.04338e-06
-3.5802e-06
-4.36856e-06
4.85144e-06
2.66967e-06
-3.15255e-06
-5.29221e-06
5.68069e-06
2.15101e-06
-2.53948e-06
-6.0112e-06
6.27509e-06
1.50693e-06
-1.77082e-06
-6.47533e-06
6.61076e-06
8.08455e-07
-9.43882e-07
-6.68591e-06
6.70121e-06
1.33806e-07
-1.49102e-07
-6.66076e-06
6.57003e-06
-4.70193e-07
5.60925e-07
-6.43273e-06
6.25337e-06
-9.83499e-07
1.16286e-06
-6.03664e-06
5.78628e-06
-1.40261e-06
1.65296e-06
-5.50516e-06
5.2003e-06
-1.73505e-06
2.03991e-06
-4.8715e-06
4.52283e-06
-1.98917e-06
2.33784e-06
-4.15671e-06
3.77608e-06
-2.17942e-06
2.56005e-06
-3.38287e-06
2.97919e-06
-2.3189e-06
2.72258e-06
-2.5661e-06
2.14667e-06
-2.41693e-06
2.83636e-06
-1.72111e-06
1.29095e-06
-2.47916e-06
2.90933e-06
-8.57582e-07
4.22441e-07
-2.50961e-06
2.94475e-06
2.29602e-06
-1.83639e-06
-4.59625e-07
-1.44467e-07
1.02825e-06
4.97466e-06
-5.85844e-06
-2.07714e-06
2.81532e-06
4.7777e-06
-5.51588e-06
-3.38692e-06
3.91848e-06
4.11588e-06
-4.64744e-06
-4.44391e-06
4.94893e-06
3.64516e-06
-4.15018e-06
-5.41185e-06
5.81722e-06
2.93552e-06
-3.34089e-06
-6.15676e-06
6.42783e-06
2.03867e-06
-2.30973e-06
-6.62878e-06
6.76159e-06
1.0787e-06
-1.21151e-06
-6.82886e-06
6.83614e-06
1.60503e-07
-1.67782e-07
-6.78625e-06
6.68507e-06
-6.56335e-07
7.57518e-07
-6.53711e-06
6.34702e-06
-1.34699e-06
1.53708e-06
-6.12091e-06
5.86141e-06
-1.90754e-06
2.16704e-06
-5.57259e-06
5.2587e-06
-2.34996e-06
2.66384e-06
-4.92245e-06
4.56649e-06
-2.6892e-06
3.04516e-06
-4.19516e-06
3.8089e-06
-2.94357e-06
3.32983e-06
-3.411e-06
3.0026e-06
-3.12854e-06
3.53694e-06
-2.586e-06
2.16223e-06
-3.25803e-06
3.6818e-06
-1.73276e-06
1.29927e-06
-3.34117e-06
3.77466e-06
-8.62631e-07
4.24011e-07
-3.38182e-06
3.82044e-06
1.10637e-06
-3.25589e-07
-7.80785e-07
2.01653e-07
9.96014e-07
6.91289e-06
-8.11056e-06
-2.10345e-06
2.84542e-06
6.29005e-06
-7.03202e-06
-3.43447e-06
3.98406e-06
5.17986e-06
-5.72945e-06
-4.53573e-06
5.07458e-06
4.66992e-06
-5.20877e-06
-5.56957e-06
5.99868e-06
3.75743e-06
-4.18654e-06
-6.35245e-06
6.62936e-06
2.58316e-06
-2.86007e-06
-6.82952e-06
6.95708e-06
1.34183e-06
-1.4694e-06
-7.0157e-06
7.00948e-06
1.69408e-07
-1.6319e-07
-6.94813e-06
6.83351e-06
-8.66504e-07
9.81125e-07
-6.67168e-06
6.46875e-06
-1.73296e-06
1.93589e-06
-6.22931e-06
5.95772e-06
-2.43312e-06
2.70472e-06
-5.65769e-06
5.33305e-06
-2.98301e-06
3.30765e-06
-4.98745e-06
4.62359e-06
-3.40467e-06
3.76853e-06
-4.24395e-06
3.85069e-06
-3.71846e-06
4.11172e-06
-3.44638e-06
3.03213e-06
-3.94736e-06
4.36161e-06
-2.61042e-06
2.18211e-06
-4.10763e-06
4.53594e-06
-1.74862e-06
1.31111e-06
-4.21021e-06
4.64772e-06
-8.70699e-07
4.28936e-07
-4.26061e-06
4.70237e-06
-2.43839e-07
4.12708e-07
-1.68868e-07
-8.12237e-07
1.62162e-06
9.2704e-06
-1.00798e-05
-2.13933e-06
2.69381e-06
7.67176e-06
-8.22624e-06
-3.33386e-06
3.99136e-06
6.3232e-06
-6.9807e-06
-4.63468e-06
5.23566e-06
5.77227e-06
-6.37325e-06
-5.77359e-06
6.2317e-06
4.62961e-06
-5.08772e-06
-6.60225e-06
6.88489e-06
3.13982e-06
-3.42246e-06
-7.083e-06
7.20118e-06
1.59247e-06
-1.71065e-06
-7.24718e-06
7.22745e-06
1.51475e-07
-1.31752e-07
-7.14744e-06
7.01559e-06
-1.1039e-06
1.23575e-06
-6.83655e-06
6.61683e-06
-2.14583e-06
2.36554e-06
-6.36122e-06
6.07463e-06
-2.98275e-06
3.26934e-06
-5.76051e-06
5.42319e-06
-3.63797e-06
3.9753e-06
-5.06561e-06
4.69168e-06
-4.13779e-06
4.51172e-06
-4.30223e-06
3.90079e-06
-4.50901e-06
4.91045e-06
-3.4888e-06
3.0679e-06
-4.77877e-06
5.19968e-06
-2.63963e-06
2.20553e-06
-4.96717e-06
5.40127e-06
-1.76665e-06
1.32403e-06
-5.0877e-06
5.53032e-06
-8.78583e-07
4.31771e-07
-5.1464e-06
5.59321e-06
9.95146e-07
-6.93986e-07
-3.0116e-07
-1.29083e-06
1.41036e-06
1.03791e-05
-1.04986e-05
-1.71002e-06
2.36057e-06
8.79896e-06
-9.44951e-06
-3.133e-06
3.94753e-06
7.71683e-06
-8.53136e-06
-4.72857e-06
5.42573e-06
7.02375e-06
-7.72091e-06
-6.0242e-06
6.51913e-06
5.56313e-06
-6.05807e-06
-6.9086e-06
7.19655e-06
3.7077e-06
-3.99564e-06
-7.3883e-06
7.49578e-06
1.82317e-06
-1.93065e-06
-7.52491e-06
7.48484e-06
1.0287e-07
-6.27911e-08
-7.38428e-06
7.23057e-06
-1.3798e-06
1.53352e-06
-7.03007e-06
6.79012e-06
-2.59642e-06
2.83637e-06
-6.51486e-06
6.21036e-06
-3.5658e-06
3.8703e-06
-5.87912e-06
5.52749e-06
-4.31995e-06
4.67157e-06
-5.15669e-06
4.76991e-06
-4.89226e-06
5.27904e-06
-4.36964e-06
3.9584e-06
-5.31665e-06
5.72789e-06
-3.53705e-06
3.10849e-06
-5.62448e-06
6.05304e-06
-2.67324e-06
2.23258e-06
-5.83842e-06
6.27909e-06
-1.78775e-06
1.3396e-06
-5.97581e-06
6.42396e-06
-8.88989e-07
4.37379e-07
-6.0427e-06
6.49431e-06
1.05356e-05
-1.22991e-05
1.76355e-06
-4.76419e-06
7.82779e-06
2.61988e-05
-2.92624e-05
-1.05734e-05
1.31959e-05
2.21587e-05
-2.47812e-05
-1.58545e-05
1.85931e-05
2.08032e-05
-2.35419e-05
-2.13969e-05
2.42437e-05
2.13605e-05
-2.42073e-05
-2.71247e-05
3.00428e-05
2.20605e-05
-2.49787e-05
-3.30065e-05
3.60249e-05
2.27012e-05
-2.57196e-05
-3.91057e-05
4.22552e-05
2.33382e-05
-2.64877e-05
-4.54786e-05
4.87809e-05
2.39437e-05
-2.72459e-05
-5.21655e-05
5.56355e-05
2.44285e-05
-2.78985e-05
-5.91922e-05
6.28346e-05
2.46605e-05
-2.83029e-05
-6.65608e-05
7.03642e-05
2.44731e-05
-2.82765e-05
-7.4235e-05
7.81587e-05
2.36193e-05
-2.7543e-05
-8.21152e-05
8.60802e-05
2.18078e-05
-2.57729e-05
-9.00231e-05
9.3909e-05
1.86797e-05
-2.25656e-05
-9.76975e-05
0.00010134
1.38202e-05
-1.74628e-05
-0.000104777
0.000107935
6.7574e-06
-9.9153e-06
-0.000110726
0.000113044
-3.03671e-06
7.18991e-07
-0.000114786
0.000115824
-1.60732e-05
1.50348e-05
-0.000116022
0.000115226
-3.2752e-05
3.35483e-05
-0.00011326
0.000109964
-5.3413e-05
5.67086e-05
-0.000105142
9.87334e-05
-7.93643e-05
8.57727e-05
-9.04225e-05
8.31565e-05
-0.000116842
0.000124108
1.41915e-05
-1.62072e-05
2.0157e-06
-4.93162e-06
7.71778e-06
3.21951e-05
-3.49813e-05
-1.02124e-05
1.26932e-05
2.73295e-05
-2.98104e-05
-1.52887e-05
1.79885e-05
2.62643e-05
-2.89641e-05
-2.07486e-05
2.35429e-05
2.70333e-05
-2.98276e-05
-2.6369e-05
2.92367e-05
2.78759e-05
-3.07436e-05
-3.21589e-05
3.51474e-05
2.87269e-05
-3.17153e-05
-3.82123e-05
4.13631e-05
2.96418e-05
-3.27925e-05
-4.4609e-05
4.79602e-05
3.05764e-05
-3.39275e-05
-5.14264e-05
5.50177e-05
3.14319e-05
-3.50232e-05
-5.87436e-05
6.2612e-05
3.20591e-05
-3.59275e-05
-6.66308e-05
7.08032e-05
3.22616e-05
-3.6434e-05
-7.5129e-05
7.96022e-05
3.1734e-05
-3.62073e-05
-8.42111e-05
8.89415e-05
3.01072e-05
-3.48376e-05
-9.3773e-05
9.86817e-05
2.6944e-05
-3.18527e-05
-0.000103637
0.000108598
2.17395e-05
-2.67011e-05
-0.000113513
0.000118314
1.38548e-05
-1.8656e-05
-0.000122921
0.000127241
2.53075e-06
-6.8514e-06
-0.00013112
0.000134429
-1.29493e-05
9.64017e-06
-0.000137036
0.000138765
-3.31873e-05
3.14581e-05
-0.000139493
0.000139236
-5.84011e-05
5.86576e-05
-0.00013825
0.000137071
-8.84803e-05
8.96596e-05
-0.000136926
0.000138073
-0.000122919
0.000121771
1.83392e-05
-2.05776e-05
2.2384e-06
-5.03187e-06
7.50974e-06
3.76147e-05
-4.00926e-05
-9.77467e-06
1.21394e-05
3.22306e-05
-3.45953e-05
-1.46663e-05
1.72945e-05
3.16329e-05
-3.42611e-05
-1.99678e-05
2.2668e-05
3.25799e-05
-3.52802e-05
-2.54022e-05
2.81855e-05
3.35735e-05
-3.63568e-05
-3.10326e-05
3.39561e-05
3.46764e-05
-3.75999e-05
-3.6968e-05
4.0081e-05
3.59304e-05
-3.90434e-05
-4.33089e-05
4.66678e-05
3.72894e-05
-4.06482e-05
-5.01748e-05
5.3849e-05
3.86631e-05
-4.23373e-05
-5.77104e-05
6.1779e-05
3.99022e-05
-4.39708e-05
-6.60763e-05
7.06193e-05
4.07947e-05
-4.53377e-05
-7.5421e-05
8.04878e-05
4.09739e-05
-4.60406e-05
-8.58171e-05
9.14011e-05
3.99861e-05
-4.55701e-05
-9.72258e-05
0.00010328
3.73216e-05
-4.33755e-05
-0.00010955
0.00011604
3.2397e-05
-3.88867e-05
-0.000122757
0.000129709
2.44234e-05
-3.13751e-05
-0.000136885
0.000144202
1.24541e-05
-1.97714e-05
-0.000151367
0.000158116
-4.69444e-06
-2.05446e-06
-0.000164042
0.00016847
-2.84466e-05
2.40185e-05
-0.000172001
0.000174183
-5.81499e-05
5.59682e-05
-0.000174517
0.000173575
-9.02301e-05
9.11724e-05
-0.000172358
0.0001712
-0.000121472
0.000122631
2.29107e-05
-2.53251e-05
2.41439e-06
-5.03603e-06
7.20498e-06
4.24148e-05
-4.45837e-05
-9.27582e-06
1.15389e-05
3.69083e-05
-3.91714e-05
-1.39751e-05
1.649e-05
3.6838e-05
-3.93529e-05
-1.90333e-05
2.16009e-05
3.79185e-05
-4.04861e-05
-2.42073e-05
2.68687e-05
3.90841e-05
-4.17455e-05
-2.9599e-05
3.24107e-05
4.0474e-05
-4.32857e-05
-3.53172e-05
3.8334e-05
4.21167e-05
-4.51335e-05
-4.14792e-05
4.47746e-05
4.39863e-05
-4.72817e-05
-4.8245e-05
5.19197e-05
4.60253e-05
-4.97e-05
-5.58322e-05
6.00203e-05
4.81129e-05
-5.2301e-05
-6.45278e-05
6.93964e-05
5.00509e-05
-5.49195e-05
-7.46644e-05
8.03575e-05
5.14143e-05
-5.71075e-05
-8.64758e-05
9.29912e-05
5.16107e-05
-5.81261e-05
-9.98711e-05
0.000107123
5.00312e-05
-5.72831e-05
-0.000114793
0.000123168
4.62652e-05
-5.46401e-05
-0.000132265
0.000141808
3.9839e-05
-4.93822e-05
-0.000150913
0.00016024
2.89126e-05
-3.824e-05
-0.000165861
0.000166414
1.07485e-05
-1.13005e-05
-0.00016796
0.000174072
-2.03003e-05
1.41883e-05
-0.0001811
0.000185439
-5.53993e-05
5.10598e-05
-0.000187447
0.000187327
-9.19749e-05
9.20948e-05
-0.000186929
0.000187412
-0.000123395
0.000122912
2.78058e-05
-3.03362e-05
2.53036e-06
-4.93344e-06
6.81166e-06
4.6604e-05
-4.84823e-05
-8.72466e-06
1.08851e-05
4.13844e-05
-4.35448e-05
-1.31968e-05
1.55569e-05
4.17952e-05
-4.41553e-05
-1.79334e-05
2.03349e-05
4.29744e-05
-4.53759e-05
-2.27779e-05
2.52763e-05
4.43307e-05
-4.68291e-05
-2.78413e-05
3.04846e-05
4.60206e-05
-4.86638e-05
-3.32201e-05
3.60647e-05
4.80742e-05
-5.09188e-05
-3.90395e-05
4.21709e-05
5.05084e-05
-5.36398e-05
-4.54917e-05
4.90435e-05
5.33295e-05
-5.68813e-05
-5.28751e-05
5.70507e-05
5.65033e-05
-6.06788e-05
-6.1634e-05
6.66817e-05
5.99194e-05
-6.49672e-05
-7.22849e-05
7.85162e-05
6.31172e-05
-6.93485e-05
-8.53267e-05
9.26071e-05
6.50803e-05
-7.23607e-05
-0.000100369
0.000108504
6.50842e-05
-7.32193e-05
-0.000116359
0.000124267
6.35843e-05
-7.1493e-05
-0.000128469
0.000130726
5.77842e-05
-6.0041e-05
-0.000126785
0.000119932
3.89019e-05
-3.20487e-05
-0.000117209
0.000121904
4.99545e-06
-9.6906e-06
-0.00012583
0.000129135
-9.2309e-06
5.92524e-06
-0.000133992
0.000141888
-3.96924e-05
3.17962e-05
-0.000151927
0.000162066
-8.46041e-05
7.44655e-05
-0.000170241
0.00017608
-0.000121378
0.00011554
3.2899e-05
-3.54771e-05
2.57813e-06
-4.72327e-06
6.34296e-06
5.02264e-05
-5.18461e-05
-8.12565e-06
1.01667e-05
4.56484e-05
-4.76894e-05
-1.23167e-05
1.44878e-05
4.64242e-05
-4.85953e-05
-1.66698e-05
1.88772e-05
4.76831e-05
-4.98905e-05
-2.1124e-05
2.34196e-05
4.92301e-05
-5.15258e-05
-2.57734e-05
2.81958e-05
5.12014e-05
-5.36239e-05
-3.07005e-05
3.33039e-05
5.36491e-05
-5.62525e-05
-3.60266e-05
3.88921e-05
5.66522e-05
-5.95176e-05
-4.1927e-05
4.51551e-05
6.0315e-05
-6.35432e-05
-4.85994e-05
5.22826e-05
6.47302e-05
-6.84133e-05
-5.61822e-05
6.04295e-05
6.98159e-05
-7.40631e-05
-6.55231e-05
7.18469e-05
7.5602e-05
-8.19258e-05
-7.93061e-05
8.75287e-05
7.99004e-05
-8.8123e-05
-9.67336e-05
0.000105055
8.13726e-05
-8.96942e-05
-0.000111743
0.000114653
7.58948e-05
-7.88043e-05
-0.000116433
0.000112303
5.6863e-05
-5.2733e-05
-0.00010527
9.52826e-05
3.00657e-05
-2.00787e-05
-8.28156e-05
7.44337e-05
7.70653e-06
6.75394e-07
-7.03947e-05
7.1769e-05
-8.52748e-06
7.15321e-06
-7.73616e-05
8.71489e-05
-2.42559e-05
1.44686e-05
-0.000102336
0.000122331
-5.92133e-05
3.92186e-05
-0.000142095
0.000155884
-0.000106145
9.2356e-05
3.80548e-05
-4.06164e-05
2.56157e-06
-4.41923e-06
5.82362e-06
5.33521e-05
-5.47564e-05
-7.49216e-06
9.39101e-06
4.96618e-05
-5.15607e-05
-1.13525e-05
1.33183e-05
5.06644e-05
-5.26303e-05
-1.52946e-05
1.72951e-05
5.1995e-05
-5.39956e-05
-1.93287e-05
2.14003e-05
5.37119e-05
-5.57835e-05
-2.35143e-05
2.56743e-05
5.59249e-05
-5.80849e-05
-2.78795e-05
3.01228e-05
5.87094e-05
-6.09528e-05
-3.23861e-05
3.46396e-05
6.21653e-05
-6.44187e-05
-3.6834e-05
3.89336e-05
6.63622e-05
-6.84618e-05
-4.0934e-05
4.29751e-05
7.13427e-05
-7.33838e-05
-4.54122e-05
4.94997e-05
7.76176e-05
-8.17051e-05
-5.69684e-05
6.85768e-05
8.94508e-05
-0.000101059
-8.53943e-05
0.0001017
9.88213e-05
-0.000115127
-0.000114241
0.000120037
9.87013e-05
-0.000104498
-0.000113622
9.73509e-05
7.85085e-05
-6.22369e-05
-7.40953e-05
5.15708e-05
3.6974e-05
-1.44495e-05
-3.7723e-05
3.44963e-05
5.47488e-06
-2.24817e-06
-3.73124e-05
4.18213e-05
-1.16054e-06
-3.34837e-06
-4.7062e-05
5.33087e-05
-1.41537e-06
-4.8314e-06
-6.12655e-05
7.16161e-05
-3.52382e-06
-6.82678e-06
-8.49679e-05
0.000101948
-2.01654e-05
3.18547e-06
-0.000122609
0.000143561
-7.34094e-05
5.24582e-05
4.31426e-05
-4.56104e-05
2.46777e-06
-4.03895e-06
5.27505e-06
5.60719e-05
-5.7308e-05
-6.83261e-06
8.56558e-06
5.33816e-05
-5.51145e-05
-1.03158e-05
1.20556e-05
5.44909e-05
-5.62307e-05
-1.37945e-05
1.55341e-05
5.58841e-05
-5.76238e-05
-1.72662e-05
1.89729e-05
5.77142e-05
-5.94208e-05
-2.06297e-05
2.22055e-05
6.00311e-05
-6.16068e-05
-2.36528e-05
2.49217e-05
6.28172e-05
-6.40862e-05
-2.59943e-05
2.69012e-05
6.60149e-05
-6.69218e-05
-2.78216e-05
2.92274e-05
6.9745e-05
-7.11508e-05
-3.19772e-05
3.77185e-05
7.55493e-05
-8.12906e-05
-4.83968e-05
6.65471e-05
8.98798e-05
-0.00010803
-8.85694e-05
0.000107799
0.000120249
-0.000139478
-0.000120349
0.000118322
0.00013043
-0.000128402
-0.000102598
7.63866e-05
9.37767e-05
-6.7565e-05
-4.60968e-05
2.43736e-05
3.40263e-05
-1.23031e-05
-1.788e-05
2.04142e-05
4.52049e-06
-7.05464e-06
-2.46408e-05
2.89737e-05
6.08761e-06
-1.04205e-05
-3.33601e-05
3.79664e-05
8.08899e-06
-1.26953e-05
-4.2863e-05
4.79262e-05
1.06158e-05
-1.56789e-05
-5.29912e-05
5.83366e-05
1.46555e-05
-2.00009e-05
-6.48214e-05
7.44896e-05
1.07893e-05
-2.04575e-05
-8.93459e-05
0.000105408
-3.28745e-05
1.68126e-05
4.80059e-05
-5.03613e-05
2.35549e-06
-3.47095e-06
4.48591e-06
5.84552e-05
-5.94702e-05
-5.84118e-06
7.26507e-06
5.67262e-05
-5.81501e-05
-8.64016e-06
9.9528e-06
5.77983e-05
-5.91109e-05
-1.12066e-05
1.23744e-05
5.91246e-05
-6.02923e-05
-1.34336e-05
1.43634e-05
6.07586e-05
-6.16884e-05
-1.52001e-05
1.60548e-05
6.26696e-05
-6.35243e-05
-1.70573e-05
1.85647e-05
6.48441e-05
-6.63516e-05
-2.12843e-05
2.63174e-05
6.81636e-05
-7.31967e-05
-3.5136e-05
5.01438e-05
7.60221e-05
-9.10299e-05
-7.4074e-05
0.000101219
9.68325e-05
-0.000123977
-0.000116836
0.000117425
0.000131613
-0.000132202
-9.86903e-05
8.24079e-05
0.000140594
-0.000124312
-6.80789e-05
5.66814e-05
0.000114615
-0.000103218
-3.37055e-05
1.39745e-05
3.71517e-05
-1.74207e-05
-9.28117e-06
1.23864e-05
7.54468e-06
-1.06499e-05
-1.65484e-05
2.02967e-05
1.14363e-05
-1.51846e-05
-2.38694e-05
2.7548e-05
1.44306e-05
-1.81092e-05
-3.1467e-05
3.56899e-05
1.71182e-05
-2.13411e-05
-4.01768e-05
4.48278e-05
2.03291e-05
-2.49801e-05
-4.94413e-05
5.37566e-05
2.40766e-05
-2.83919e-05
-5.77943e-05
6.14986e-05
2.58226e-05
-2.95269e-05
-6.83506e-05
8.42548e-05
-2.8922e-06
-1.3012e-05
5.3044e-05
-5.7362e-05
4.31803e-06
-3.11385e-06
3.47263e-06
6.02609e-05
-6.06197e-05
-4.5205e-06
5.64378e-06
5.93302e-05
-6.04535e-05
-6.78974e-06
8.03344e-06
6.01668e-05
-6.14105e-05
-9.50249e-06
1.13119e-05
6.12784e-05
-6.30878e-05
-1.37625e-05
1.73545e-05
6.28132e-05
-6.64053e-05
-2.28791e-05
3.13448e-05
6.58817e-05
-7.43475e-05
-4.29727e-05
6.06591e-05
7.2435e-05
-9.01213e-05
-8.56502e-05
0.000109917
8.87218e-05
-0.000112989
-0.000122695
0.000122915
0.000118861
-0.000119081
-0.000114996
0.000100759
0.000125597
-0.00011136
-8.44463e-05
6.53041e-05
0.000112566
-9.34236e-05
-4.40303e-05
3.84428e-05
0.000110992
-0.000105405
-3.52048e-05
2.18224e-05
9.24396e-05
-7.90572e-05
-7.95962e-06
7.42581e-06
1.00786e-05
-9.54478e-06
-1.07763e-05
1.36394e-05
1.45423e-05
-1.74054e-05
-1.60195e-05
1.85012e-05
1.82124e-05
-2.06941e-05
-2.12987e-05
2.44297e-05
2.15023e-05
-2.46332e-05
-2.79838e-05
3.19533e-05
2.54395e-05
-2.94089e-05
-3.63967e-05
4.13765e-05
2.97934e-05
-3.47732e-05
-4.69382e-05
5.32233e-05
3.37518e-05
-4.00369e-05
-6.04317e-05
6.95269e-05
3.60571e-05
-4.51523e-05
-8.04697e-05
9.86819e-05
3.04872e-05
-4.86995e-05
6.50223e-05
-7.11955e-05
6.17317e-06
-8.19335e-06
9.71369e-06
6.05556e-05
-6.20759e-05
-1.35605e-05
1.84955e-05
6.24453e-05
-6.73803e-05
-2.52136e-05
3.50217e-05
6.4573e-05
-7.4381e-05
-4.59794e-05
5.69429e-05
6.83369e-05
-7.93004e-05
-6.73508e-05
7.70844e-05
7.72334e-05
-8.6967e-05
-8.31501e-05
8.6961e-05
9.45201e-05
-9.83311e-05
-9.09686e-05
9.3905e-05
0.000103132
-0.000106068
-9.4731e-05
9.36566e-05
0.000112452
-0.000111378
-9.14192e-05
8.81601e-05
0.000111265
-0.000108006
-8.32389e-05
7.60081e-05
9.97508e-05
-9.25199e-05
-6.58863e-05
5.36408e-05
7.9656e-05
-6.74104e-05
-4.43206e-05
3.76725e-05
0.000101372
-9.47238e-05
-2.88926e-05
1.00271e-05
6.07354e-05
-4.18699e-05
-6.12838e-06
8.97217e-06
1.24859e-05
-1.53297e-05
-1.03191e-05
1.13076e-05
1.91564e-05
-2.01448e-05
-1.26953e-05
1.45e-05
2.28099e-05
-2.46145e-05
-1.67394e-05
1.9387e-05
2.75519e-05
-3.01996e-05
-2.25003e-05
2.6129e-05
3.32317e-05
-3.68604e-05
-3.03388e-05
3.52167e-05
3.97715e-05
-4.46495e-05
-4.0943e-05
4.77146e-05
4.67878e-05
-5.35594e-05
-5.58827e-05
6.58225e-05
5.51667e-05
-6.51065e-05
-7.84789e-05
9.36065e-05
6.66366e-05
-8.17642e-05
7.24831e-05
-7.31609e-05
6.77814e-07
-6.53533e-06
1.43256e-05
6.76585e-05
-7.54487e-05
-1.96855e-05
2.45598e-05
7.3504e-05
-7.83782e-05
-2.91349e-05
3.32548e-05
7.91975e-05
-8.33173e-05
-3.72969e-05
4.16992e-05
8.50035e-05
-8.94058e-05
-4.64749e-05
5.12246e-05
9.24066e-05
-9.71563e-05
-5.59463e-05
6.07105e-05
0.000101908
-0.000106672
-6.58916e-05
7.16791e-05
0.000110054
-0.000115842
-7.81893e-05
8.50703e-05
0.000114877
-0.000121758
-9.12769e-05
9.52594e-05
0.000109291
-0.000113273
-9.53859e-05
9.0511e-05
8.70003e-05
-8.21254e-05
-8.01676e-05
6.56539e-05
5.41113e-05
-3.95976e-05
-4.78495e-05
3.11008e-05
8.3358e-05
-6.66093e-05
-1.69074e-05
5.81741e-06
2.65055e-05
-1.54155e-05
-6.56644e-06
6.85384e-06
1.6669e-05
-1.69564e-05
-6.42324e-06
6.73172e-06