/*--------------------------------*- C++ -*----------------------------------*\
| =========                 |                                                 |
| \\      /  F ield         | OpenFOAM: The Open Source CFD Toolbox           |
|  \\    /   O peration     | Version:  v1912                                 |
|   \\  /    A nd           | Website:  www.openfoam.com                      |
|    \\/     M anipulation  |                                                 |
\*---------------------------------------------------------------------------*/
FoamFile
{
    version     2.0;
    format      ascii;
    class       volVectorField;
    location    "0.2";
    object      U;
}
// * * * * * * * * * * * * * * * * * * * * * * * * * * * * * * * * * * * * * //

dimensions      [0 1 -1 0 0 0 0];


internalField   nonuniform List<vector> 
9072
(
(0.00010027 -0.00724018 0)
(0.0617043 -0.00899037 0)
(0.135498 -0.00762082 0)
(0.196824 -0.00678374 0)
(0.255611 -0.00688351 0)
(0.316413 -0.00716046 0)
(0.379364 -0.00738026 0)
(0.443938 -0.00754922 0)
(0.509753 -0.00767201 0)
(0.576329 -0.00772004 0)
(0.642841 -0.00764268 0)
(0.707972 -0.00737224 0)
(0.769764 -0.00682219 0)
(0.825434 -0.00588337 0)
(0.87119 -0.00441629 0)
(0.901821 -0.00221343 0)
(0.908653 0.00218851 0)
(0.864373 0.0126094 0)
(0.728659 0.0314849 0)
(0.440933 0.0581976 0)
(-0.00988323 0.0418477 0)
(-0.256149 0.0393994 0)
(-0.508758 -0.0494537 0)
(0.000193515 -0.0172553 0)
(0.0629575 -0.0461252 0)
(0.137257 -0.0393932 0)
(0.199334 -0.0351007 0)
(0.259016 -0.0355541 0)
(0.320698 -0.0369183 0)
(0.384485 -0.0380105 0)
(0.449891 -0.0388527 0)
(0.516568 -0.0394684 0)
(0.584063 -0.0397185 0)
(0.651578 -0.039355 0)
(0.717839 -0.0380446 0)
(0.78094 -0.0353628 0)
(0.83817 -0.030777 0)
(0.885848 -0.023614 0)
(0.919081 -0.0129542 0)
(0.931532 0.00241979 0)
(0.915972 0.0249671 0)
(0.872586 0.0643262 0)
(0.824273 0.144579 0)
(0.713532 0.254691 0)
(0.233355 0.251867 0)
(-0.0963753 -0.147992 0)
(0.000442079 -0.027667 0)
(0.063509 -0.0829678 0)
(0.136763 -0.0708329 0)
(0.198395 -0.063308 0)
(0.258146 -0.0642003 0)
(0.319936 -0.0666265 0)
(0.383751 -0.0685778 0)
(0.449192 -0.0701113 0)
(0.51599 -0.0712603 0)
(0.583747 -0.071769 0)
(0.651712 -0.0711936 0)
(0.718667 -0.0689396 0)
(0.782775 -0.064249 0)
(0.841401 -0.056172 0)
(0.890968 -0.0435243 0)
(0.926748 -0.0248038 0)
(0.942754 0.00203332 0)
(0.931871 0.0403075 0)
(0.887085 0.0956576 0)
(0.807601 0.175437 0)
(0.744961 0.298839 0)
(0.7271 0.425656 0)
(0.449206 0.0346145 0)
(0.000800177 -0.0386582 0)
(0.0641813 -0.119431 0)
(0.135985 -0.101807 0)
(0.196992 -0.0914555 0)
(0.256854 -0.0929145 0)
(0.318802 -0.0963624 0)
(0.382692 -0.0991544 0)
(0.448252 -0.101415 0)
(0.515326 -0.103169 0)
(0.583594 -0.104039 0)
(0.652384 -0.103387 0)
(0.720571 -0.100363 0)
(0.786419 -0.0938795 0)
(0.84741 -0.0825764 0)
(0.900103 -0.0647776 0)
(0.939958 -0.0384214 0)
(0.961279 -0.000877446 0)
(0.957557 0.0513664 0)
(0.922868 0.122738 0)
(0.855648 0.216341 0)
(0.760011 0.322541 0)
(0.703413 0.424128 0)
(0.548888 0.283719 0)
(0.00129158 -0.0504018 0)
(0.0650184 -0.155397 0)
(0.135007 -0.132171 0)
(0.195297 -0.119547 0)
(0.25534 -0.121735 0)
(0.317502 -0.126163 0)
(0.381523 -0.129791 0)
(0.447291 -0.132841 0)
(0.51478 -0.135312 0)
(0.583762 -0.136693 0)
(0.653673 -0.136161 0)
(0.723511 -0.132619 0)
(0.791684 -0.124656 0)
(0.855837 -0.11051 0)
(0.912726 -0.0880341 0)
(0.958049 -0.0546279 0)
(0.986394 -0.0071419 0)
(0.991602 0.0580913 0)
(0.967519 0.144655 0)
(0.909649 0.253311 0)
(0.815462 0.374279 0)
(0.668521 0.468564 0)
(0.457559 0.493043 0)
(0.0020211 -0.0630989 0)
(0.0659393 -0.190695 0)
(0.133739 -0.161811 0)
(0.193262 -0.1476 0)
(0.253487 -0.150674 0)
(0.315798 -0.156025 0)
(0.379877 -0.160489 0)
(0.445811 -0.164406 0)
(0.513712 -0.167721 0)
(0.583469 -0.169795 0)
(0.654655 -0.169629 0)
(0.726429 -0.165886 0)
(0.797384 -0.156843 0)
(0.865363 -0.140349 0)
(0.927349 -0.113798 0)
(0.979265 -0.0740613 0)
(1.01594 -0.0174991 0)
(1.03145 0.0597722 0)
(1.01924 0.161186 0)
(0.972043 0.287348 0)
(0.879072 0.430967 0)
(0.71053 0.565307 0)
(0.408438 0.681343 0)
(0.00292167 -0.0769689 0)
(0.0668177 -0.225115 0)
(0.132162 -0.190643 0)
(0.190899 -0.175608 0)
(0.251244 -0.179694 0)
(0.313591 -0.185898 0)
(0.377648 -0.191213 0)
(0.443713 -0.196097 0)
(0.512041 -0.200416 0)
(0.582656 -0.203404 0)
(0.655294 -0.203902 0)
(0.729313 -0.200349 0)
(0.803524 -0.190714 0)
(0.876009 -0.172466 0)
(0.944 -0.142539 0)
(1.00365 -0.0972762 0)
(1.05007 -0.0325612 0)
(1.07735 0.0558547 0)
(1.07819 0.17182 0)
(1.04333 0.317122 0)
(0.958276 0.488836 0)
(0.790473 0.678319 0)
(0.447726 0.881595 0)
(0.00404885 -0.0919874 0)
(0.0675771 -0.25849 0)
(0.130301 -0.218642 0)
(0.188287 -0.203553 0)
(0.248662 -0.208731 0)
(0.310904 -0.215726 0)
(0.374844 -0.221931 0)
(0.440989 -0.227902 0)
(0.509728 -0.233406 0)
(0.581232 -0.237569 0)
(0.655431 -0.239088 0)
(0.731916 -0.236192 0)
(0.809752 -0.226553 0)
(0.8873 -0.207273 0)
(0.962046 -0.174823 0)
(1.03046 -0.125056 0)
(1.08803 -0.0533387 0)
(1.12881 0.0453412 0)
(1.14472 0.175758 0)
(1.12508 0.341008 0)
(1.05491 0.542473 0)
(0.905154 0.786789 0)
(0.587792 1.09697 0)
(0.00198038 -0.00691471 0)
(0.0303742 -0.00223943 0)
(0.051678 -0.00161423 0)
(0.0701381 -0.00135581 0)
(0.0870332 -0.00131888 0)
(0.101826 -0.00112649 0)
(0.113057 -0.0007686 0)
(0.120135 -0.00039901 0)
(0.122951 -2.41232e-05 0)
(0.12169 0.000300225 0)
(0.116901 0.000591992 0)
(0.109137 0.000838089 0)
(0.0989854 0.0010332 0)
(0.0869845 0.00118555 0)
(0.0735518 0.00130195 0)
(0.05907 0.00138217 0)
(0.0437968 0.00144813 0)
(0.028016 0.00149153 0)
(0.0119166 0.00150534 0)
(0.00289725 -0.0134342 0)
(0.0267676 -0.0131809 0)
(0.0545895 -0.0128355 0)
(0.0800513 -0.0115691 0)
(0.102767 -0.0100371 0)
(0.121822 -0.00808953 0)
(0.136306 -0.00575639 0)
(0.14555 -0.00312494 0)
(0.149352 -0.000569668 0)
(0.148112 0.00174826 0)
(0.142459 0.00373536 0)
(0.133105 0.00536088 0)
(0.120778 0.00663273 0)
(0.106138 0.00761768 0)
(0.0897348 0.00836383 0)
(0.0720392 0.00890669 0)
(0.0533955 0.00928542 0)
(0.0341378 0.0095256 0)
(0.0145093 0.00963864 0)
(0.00186414 -0.0200227 0)
(0.0257808 -0.0248899 0)
(0.0552202 -0.0243157 0)
(0.0808468 -0.0217583 0)
(0.103874 -0.019016 0)
(0.123345 -0.0153337 0)
(0.137982 -0.0108053 0)
(0.14715 -0.00583994 0)
(0.150747 -0.00101725 0)
(0.14925 0.00331151 0)
(0.143346 0.00701921 0)
(0.133784 0.0100454 0)
(0.121297 0.0124423 0)
(0.106528 0.0142777 0)
(0.0900214 0.0156623 0)
(0.0722442 0.0166759 0)
(0.0535387 0.0173772 0)
(0.0342228 0.0178316 0)
(0.0145431 0.0180606 0)
(-0.000857238 -0.0237962 0)
(0.0216947 -0.0374004 0)
(0.055827 -0.0365074 0)
(0.0818543 -0.0321626 0)
(0.105332 -0.0282432 0)
(0.125426 -0.0227553 0)
(0.140402 -0.0159083 0)
(0.149608 -0.00850882 0)
(0.153003 -0.00137695 0)
(0.151196 0.00500292 0)
(0.144949 0.0104167 0)
(0.135066 0.0148336 0)
(0.122307 0.018325 0)
(0.107301 0.0210071 0)
(0.0906011 0.0230132 0)
(0.0726599 0.0244808 0)
(0.0538258 0.0255061 0)
(0.0343954 0.0261619 0)
(0.0146311 0.0264838 0)
(-0.00841375 -0.0205242 0)
(0.0110876 -0.0518733 0)
(0.0572694 -0.0497043 0)
(0.083339 -0.0425797 0)
(0.107295 -0.0378088 0)
(0.128375 -0.030442 0)
(0.143868 -0.0211024 0)
(0.153076 -0.0111228 0)
(0.156192 -0.00160151 0)
(0.153943 0.00685711 0)
(0.147214 0.0139983 0)
(0.136887 0.0197815 0)
(0.123727 0.0243396 0)
(0.108391 0.0278389 0)
(0.0914158 0.0304617 0)
(0.0732469 0.0323662 0)
(0.0542245 0.0336943 0)
(0.0346344 0.0345492 0)
(0.0147019 0.0349693 0)
(-0.0212672 -0.00623338 0)
(0.0109157 -0.0730165 0)
(0.058239 -0.0648547 0)
(0.0846217 -0.0528872 0)
(0.10976 -0.0479075 0)
(0.13229 -0.0385337 0)
(0.148442 -0.0264159 0)
(0.157623 -0.0136565 0)
(0.160328 -0.00162317 0)
(0.157488 0.00896444 0)
(0.150135 0.0178054 0)
(0.139222 0.0249433 0)
(0.125543 0.0305381 0)
(0.109775 0.0348248 0)
(0.0924482 0.0380215 0)
(0.073989 0.0403473 0)
(0.0547294 0.041967 0)
(0.0349397 0.0430087 0)
(0.014851 0.0435282 0)
(-0.0267748 0.00647964 0)
(0.0373253 -0.0951573 0)
(0.0560389 -0.0772452 0)
(0.0835607 -0.0643788 0)
(0.11282 -0.0588699 0)
(0.13734 -0.0471462 0)
(0.154251 -0.0318499 0)
(0.163316 -0.0160418 0)
(0.165442 -0.00139042 0)
(0.161847 0.0113472 0)
(0.153703 0.0218949 0)
(0.142056 0.030353 0)
(0.127741 0.0369599 0)
(0.111444 0.0419923 0)
(0.0936847 0.0457379 0)
(0.0748751 0.0484541 0)
(0.0553315 0.0503414 0)
(0.035298 0.0515524 0)
(0.0149686 0.0521377 0)
(-0.0144043 0.0146217 0)
(0.0397244 -0.100655 0)
(0.0482036 -0.0883828 0)
(0.0808336 -0.0787313 0)
(0.116289 -0.0714666 0)
(0.143565 -0.0563623 0)
(0.161367 -0.0373873 0)
(0.170224 -0.0182336 0)
(0.171574 -0.000815955 0)
(0.16701 0.0141393 0)
(0.157895 0.0263663 0)
(0.145362 0.0360997 0)
(0.130298 0.0436471 0)
(0.113371 0.0493815 0)
(0.0951077 0.0536291 0)
(0.0758921 0.0567054 0)
(0.0560222 0.0588345 0)
(0.0357168 0.0602071 0)
(0.0151489 0.0608952 0)
(0.00607839 -0.122958 0)
(0.06818 -0.299529 0)
(0.127643 -0.253458 0)
(0.184705 -0.239331 0)
(0.244865 -0.245925 0)
(0.306718 -0.253862 0)
(0.370348 -0.261294 0)
(0.436484 -0.268842 0)
(0.505681 -0.276143 0)
(0.578335 -0.282209 0)
(0.654672 -0.285587 0)
(0.734643 -0.284252 0)
(0.817711 -0.27551 0)
(0.902621 -0.255965 0)
(0.987241 -0.2215 0)
(1.06856 -0.16739 0)
(1.14236 -0.0881267 0)
(1.20236 0.0225763 0)
(1.23998 0.170701 0)
(1.24461 0.360805 0)
(1.20342 0.597262 0)
(1.10563 0.896196 0)
(0.999698 1.31931 0)
(0.00841323 -0.1638 0)
(0.0686785 -0.362891 0)
(0.122769 -0.308505 0)
(0.178409 -0.298087 0)
(0.237636 -0.306918 0)
(0.298317 -0.316391 0)
(0.361055 -0.326192 0)
(0.426854 -0.336896 0)
(0.496538 -0.347985 0)
(0.570947 -0.358412 0)
(0.650923 -0.366583 0)
(0.737178 -0.370141 0)
(0.830014 -0.365803 0)
(0.928932 -0.349305 0)
(1.03263 -0.315741 0)
(1.13898 -0.259388 0)
(1.24449 -0.172787 0)
(1.34345 -0.0471971 0)
(1.42711 0.126068 0)
(1.48331 0.355517 0)
(1.50061 0.636312 0)
(1.4816 0.96336 0)
(1.4723 1.32629 0)
(0.010716 -0.209796 0)
(0.0681604 -0.419721 0)
(0.117247 -0.360736 0)
(0.17138 -0.355686 0)
(0.228755 -0.36632 0)
(0.287468 -0.377469 0)
(0.348594 -0.390101 0)
(0.413259 -0.404622 0)
(0.482562 -0.420542 0)
(0.557857 -0.436969 0)
(0.64075 -0.452379 0)
(0.732993 -0.464255 0)
(0.836052 -0.468679 0)
(0.950432 -0.460429 0)
(1.07547 -0.433777 0)
(1.21009 -0.382382 0)
(1.35419 -0.297379 0)
(1.50834 -0.16616 0)
(1.66283 0.0246722 0)
(1.78689 0.313414 0)
(1.86422 0.65211 0)
(1.87093 0.990122 0)
(1.84041 1.31509 0)
(0.0128371 -0.260134 0)
(0.0664503 -0.469831 0)
(0.111232 -0.410651 0)
(0.16341 -0.411299 0)
(0.218011 -0.42326 0)
(0.273978 -0.43633 0)
(0.3326 -0.452132 0)
(0.395005 -0.470954 0)
(0.462539 -0.492588 0)
(0.537057 -0.516565 0)
(0.621064 -0.541792 0)
(0.717835 -0.565979 0)
(0.830901 -0.584659 0)
(0.962213 -0.59076 0)
(1.10993 -0.577666 0)
(1.27544 -0.541401 0)
(1.47088 -0.480845 0)
(1.66703 -0.393708 0)
(1.79201 -0.245591 0)
(1.82615 0.162937 0)
(1.9734 0.565861 0)
(2.01555 0.94623 0)
(2.01031 1.31882 0)
(0.0146307 -0.313655 0)
(0.0635361 -0.513428 0)
(0.104749 -0.458406 0)
(0.154273 -0.464005 0)
(0.205301 -0.476962 0)
(0.257758 -0.492124 0)
(0.312829 -0.51116 0)
(0.371564 -0.534426 0)
(0.435444 -0.562229 0)
(0.506762 -0.5949 0)
(0.589057 -0.632503 0)
(0.68748 -0.673883 0)
(0.807717 -0.714408 0)
(0.953694 -0.741058 0)
(1.12069 -0.744863 0)
(1.28917 -0.747077 0)
(1.38772 -0.68411 0)
(1.33596 -0.382333 0)
(1.2714 0.0246321 0)
(1.37809 0.110607 0)
(1.46731 0.428532 0)
(1.68821 0.900785 0)
(1.86253 1.28076 0)
(0.0159761 -0.368948 0)
(0.059521 -0.551064 0)
(0.0977627 -0.503797 0)
(0.143855 -0.512967 0)
(0.190712 -0.52675 0)
(0.238955 -0.543938 0)
(0.289494 -0.565925 0)
(0.34328 -0.593355 0)
(0.401759 -0.627249 0)
(0.466961 -0.669021 0)
(0.541008 -0.719984 0)
(0.624769 -0.778787 0)
(0.734025 -0.848602 0)
(0.892902 -0.905088 0)
(1.07635 -0.942244 0)
(1.22491 -0.844163 0)
(1.24447 -0.572143 0)
(1.08682 -0.317401 0)
(0.830585 -0.0315629 0)
(0.75412 0.127454 0)
(0.872762 0.222316 0)
(1.1969 0.538489 0)
(1.61731 1.10209 0)
(0.0168709 -0.424575 0)
(0.0546452 -0.583566 0)
(0.0903253 -0.546369 0)
(0.132418 -0.557626 0)
(0.174856 -0.572177 0)
(0.218521 -0.591127 0)
(0.263917 -0.615588 0)
(0.311272 -0.646373 0)
(0.359891 -0.684387 0)
(0.407071 -0.72992 0)
(0.450227 -0.783165 0)
(0.504316 -0.853944 0)
(0.655943 -1.01947 0)
(1.00897 -1.16737 0)
(1.28631 -1.09214 0)
(1.16671 -0.787475 0)
(0.660982 -0.275412 0)
(0.368893 0.00377127 0)
(0.423126 -0.0155967 0)
(0.537942 -0.0187759 0)
(0.709193 -0.0249151 0)
(0.988217 0.114655 0)
(1.43349 0.669679 0)
(0.0171562 -0.479088 0)
(0.0491584 -0.611886 0)
(0.0824862 -0.585589 0)
(0.120107 -0.597706 0)
(0.15744 -0.612865 0)
(0.194634 -0.632742 0)
(0.23023 -0.657614 0)
(0.261292 -0.686679 0)
(0.28431 -0.718809 0)
(0.304408 -0.757171 0)
(0.363875 -0.831427 0)
(0.58869 -1.04211 0)
(1.06994 -1.41043 0)
(1.32276 -1.42147 0)
(0.983168 -0.905627 0)
(0.337552 -0.190921 0)
(0.197285 -0.0507725 0)
(0.2885 -0.0903903 0)
(0.382815 -0.113362 0)
(0.488566 -0.144155 0)
(0.596341 -0.191138 0)
(0.727038 -0.17693 0)
(1.0415 0.264014 0)
(0.0170554 -0.530671 0)
(0.0411148 -0.637076 0)
(0.0703384 -0.620714 0)
(0.0999754 -0.631826 0)
(0.126838 -0.645493 0)
(0.149563 -0.661625 0)
(0.167752 -0.680202 0)
(0.18907 -0.702588 0)
(0.247227 -0.746407 0)
(0.439638 -0.866253 0)
(0.95583 -1.18146 0)
(1.299 -1.51176 0)
(0.936681 -1.44229 0)
(0.729237 -1.16552 0)
(0.211849 -0.243948 0)
(0.110051 -0.093731 0)
(0.199334 -0.146804 0)
(0.276059 -0.176847 0)
(0.360496 -0.20821 0)
(0.456375 -0.24408 0)
(0.55394 -0.280428 0)
(0.64532 -0.293922 0)
(0.812631 -0.0348662 0)
(0.034102 -0.590706 0)
(0.0306675 -0.652054 0)
(0.0543823 -0.645179 0)
(0.0792006 -0.654014 0)
(0.110344 -0.666498 0)
(0.162867 -0.688266 0)
(0.284192 -0.73584 0)
(0.535478 -0.842467 0)
(1.06345 -1.09466 0)
(1.34538 -1.37536 0)
(1.16282 -1.31927 0)
(0.79198 -1.09457 0)
(0.353978 -1.1595 0)
(0.381738 -0.933469 0)
(0.0715219 -0.0940802 0)
(0.134161 -0.176559 0)
(0.185204 -0.211302 0)
(0.244936 -0.249682 0)
(0.321027 -0.296431 0)
(0.416468 -0.348457 0)
(0.53548 -0.397407 0)
(0.690418 -0.437835 0)
(0.940479 -0.438663 0)
(0.029596 -0.757433 0)
(0.0846155 -0.663762 0)
(0.168525 -0.696444 0)
(0.311613 -0.73353 0)
(0.555238 -0.800327 0)
(0.775167 -0.903354 0)
(0.92116 -1.0862 0)
(0.995548 -1.14735 0)
(1.0132 -1.19332 0)
(0.967431 -1.15716 0)
(0.860376 -1.02538 0)
(0.611841 -0.791707 0)
(0.325048 -1.07034 0)
(0.252503 -0.529891 0)
(0.105818 -0.152496 0)
(0.115171 -0.213476 0)
(0.145323 -0.25663 0)
(0.193221 -0.312225 0)
(0.260492 -0.378923 0)
(0.35098 -0.45644 0)
(0.474085 -0.542997 0)
(0.653133 -0.651864 0)
(0.928985 -0.807848 0)
(-0.00706108 -0.784464 0)
(0.117262 -0.762508 0)
(0.238188 -0.818963 0)
(0.33533 -0.878991 0)
(0.424056 -0.940692 0)
(0.523742 -1.0201 0)
(0.625205 -1.12216 0)
(0.736294 -1.21563 0)
(0.87448 -1.27072 0)
(1.00834 -1.19469 0)
(1.01138 -0.909553 0)
(0.762526 -0.502378 0)
(0.272526 -0.819111 0)
(0.0918026 -0.21826 0)
(0.0719892 -0.183221 0)
(0.0688967 -0.22529 0)
(0.0864212 -0.28878 0)
(0.122118 -0.363432 0)
(0.17655 -0.451173 0)
(0.253188 -0.555384 0)
(0.359528 -0.6812 0)
(0.50907 -0.848897 0)
(0.699967 -1.08536 0)
(0.0173526 -0.82345 0)
(0.0813539 -0.895218 0)
(0.155765 -0.908424 0)
(0.225936 -0.958151 0)
(0.295969 -1.02758 0)
(0.373472 -1.11937 0)
(0.464827 -1.23324 0)
(0.592499 -1.36617 0)
(0.812242 -1.47568 0)
(1.01229 -1.31265 0)
(1.00524 -0.813568 0)
(0.802238 -0.211432 0)
(0.399606 -0.310101 0)
(-0.0273267 -0.0452239 0)
(-0.00212634 -0.159086 0)
(0.00148811 -0.225432 0)
(0.00870961 -0.308843 0)
(0.0316874 -0.401193 0)
(0.0703202 -0.507351 0)
(0.126053 -0.634004 0)
(0.203101 -0.789573 0)
(0.307029 -0.990669 0)
(0.419305 -1.25678 0)
(0.0158023 -0.875542 0)
(0.0475641 -0.946679 0)
(0.0904309 -0.966567 0)
(0.132675 -1.01387 0)
(0.175424 -1.08672 0)
(0.22255 -1.18889 0)
(0.282016 -1.32712 0)
(0.393078 -1.55146 0)
(0.589558 -1.71865 0)
(0.609826 -1.34713 0)
(0.511098 -0.73105 0)
(0.393157 -0.0238747 0)
(0.28719 0.0373725 0)
(-0.0635994 0.113506 0)
(-0.0843348 -0.0991254 0)
(-0.0883373 -0.21688 0)
(-0.0871823 -0.319249 0)
(-0.0746698 -0.424802 0)
(-0.053353 -0.54353 0)
(-0.0228568 -0.684755 0)
(0.0201826 -0.859845 0)
(0.0798404 -1.08098 0)
(0.150189 -1.34888 0)
(0.00600831 -0.904774 0)
(0.019125 -0.971693 0)
(0.0357987 -0.995886 0)
(0.0517177 -1.04246 0)
(0.0652961 -1.11518 0)
(0.0756447 -1.21964 0)
(0.0789894 -1.36803 0)
(0.0993234 -1.66437 0)
(0.102921 -1.73889 0)
(-0.111989 -1.17745 0)
(-0.256738 -0.591895 0)
(-0.309573 0.068944 0)
(-0.259971 0.156058 0)
(-0.259543 0.121047 0)
(-0.21677 -0.0817255 0)
(-0.202414 -0.214812 0)
(-0.19524 -0.325304 0)
(-0.189923 -0.435135 0)
(-0.186397 -0.55728 0)
(-0.184477 -0.703442 0)
(-0.181927 -0.888439 0)
(-0.169859 -1.13098 0)
(-0.123893 -1.44213 0)
(-0.000462371 -0.907276 0)
(-0.00280357 -0.976399 0)
(-0.0071817 -1.00093 0)
(-0.0145187 -1.04431 0)
(-0.0289248 -1.11051 0)
(-0.0562024 -1.20292 0)
(-0.107397 -1.32949 0)
(-0.206388 -1.60708 0)
(-0.358296 -1.58389 0)
(-0.501641 -0.92008 0)
(-0.725386 -0.537484 0)
(-0.661586 -0.085829 0)
(-0.605033 0.204858 0)
(-0.429516 -0.000219266 0)
(-0.351314 -0.116239 0)
(-0.315558 -0.229449 0)
(-0.302439 -0.330726 0)
(-0.30355 -0.433157 0)
(-0.31762 -0.547271 0)
(-0.346374 -0.684508 0)
(-0.392918 -0.861547 0)
(-0.45918 -1.10802 0)
(-0.528822 -1.46958 0)
(-0.00378336 -0.89422 0)
(-0.0200585 -0.964185 0)
(-0.0405492 -0.986121 0)
(-0.0667204 -1.02271 0)
(-0.103924 -1.07628 0)
(-0.15986 -1.1475 0)
(-0.242915 -1.23209 0)
(-0.401345 -1.42526 0)
(-0.636335 -1.49784 0)
(-0.5796 -0.842346 0)
(-0.643374 -0.346406 0)
(-0.741792 -0.12237 0)
(-0.664764 -0.00170544 0)
(-0.524511 -0.113142 0)
(-0.447313 -0.173736 0)
(-0.408482 -0.253629 0)
(-0.395906 -0.33435 0)
(-0.404309 -0.419512 0)
(-0.433961 -0.514727 0)
(-0.48964 -0.627563 0)
(-0.582229 -0.769661 0)
(-0.734197 -0.962734 0)
(-0.993001 -1.23245 0)
(-0.00623067 -0.869897 0)
(-0.0337586 -0.938976 0)
(-0.0662258 -0.9562 0)
(-0.105897 -0.983555 0)
(-0.158054 -1.02131 0)
(-0.230241 -1.06863 0)
(-0.328634 -1.11409 0)
(-0.484321 -1.18484 0)
(-0.797437 -1.27788 0)
(-0.974004 -0.944511 0)
(-0.78676 -0.373463 0)
(-0.731177 -0.023089 0)
(-0.651741 -0.102617 0)
(-0.567385 -0.190204 0)
(-0.508402 -0.223469 0)
(-0.476021 -0.276275 0)
(-0.46839 -0.333424 0)
(-0.483764 -0.395902 0)
(-0.524161 -0.465171 0)
(-0.595866 -0.543191 0)
(-0.712271 -0.631981 0)
(-0.899471 -0.732164 0)
(-1.21394 -0.8182 0)
(-0.00812433 -0.836972 0)
(-0.0441011 -0.904092 0)
(-0.0847927 -0.915783 0)
(-0.132666 -0.933475 0)
(-0.192053 -0.955837 0)
(-0.268735 -0.98048 0)
(-0.368226 -0.998534 0)
(-0.493363 -0.995728 0)
(-0.679663 -0.962387 0)
(-0.929702 -0.847346 0)
(-1.00924 -0.559073 0)
(-0.861218 -0.24817 0)
(-0.669981 -0.236029 0)
(-0.591188 -0.253295 0)
(-0.543595 -0.265522 0)
(-0.519875 -0.292785 0)
(-0.517823 -0.327085 0)
(-0.538089 -0.365777 0)
(-0.582943 -0.407301 0)
(-0.657806 -0.449131 0)
(-0.772433 -0.485803 0)
(-0.942357 -0.5052 0)
(-1.19086 -0.467574 0)
(-0.00936234 -0.798167 0)
(-0.0509831 -0.862621 0)
(-0.0964825 -0.869153 0)
(-0.148103 -0.878264 0)
(-0.208992 -0.887931 0)
(-0.282588 -0.894814 0)
(-0.372312 -0.892486 0)
(-0.477368 -0.868543 0)
(-0.594045 -0.80944 0)
(-0.699068 -0.699099 0)
(-0.747972 -0.538205 0)
(-0.707133 -0.391804 0)
(-0.635072 -0.327081 0)
(-0.587487 -0.30146 0)
(-0.554593 -0.296565 0)
(-0.540837 -0.302395 0)
(-0.544773 -0.315985 0)
(-0.567694 -0.332938 0)
(-0.611685 -0.349483 0)
(-0.680143 -0.360604 0)
(-0.777714 -0.358224 0)
(-0.908814 -0.32828 0)
(-1.07328 -0.240753 0)
(-0.00994357 -0.756125 0)
(-0.0545908 -0.817479 0)
(-0.102048 -0.81973 0)
(-0.154233 -0.82208 0)
(-0.213101 -0.822513 0)
(-0.280241 -0.817826 0)
(-0.356479 -0.8031 0)
(-0.439857 -0.771103 0)
(-0.522986 -0.713975 0)
(-0.591655 -0.628878 0)
(-0.626182 -0.524824 0)
(-0.618319 -0.430469 0)
(-0.590198 -0.368976 0)
(-0.564643 -0.332719 0)
(-0.548345 -0.31304 0)
(-0.543605 -0.304221 0)
(-0.552364 -0.301384 0)
(-0.575933 -0.300482 0)
(-0.615749 -0.297159 0)
(-0.673253 -0.285858 0)
(-0.749294 -0.258967 0)
(-0.841801 -0.205954 0)
(-0.942695 -0.109342 0)
(-0.0100668 -0.713032 0)
(-0.055555 -0.771027 0)
(-0.102931 -0.77007 0)
(-0.153598 -0.767614 0)
(-0.208624 -0.761995 0)
(-0.268502 -0.750689 0)
(-0.332701 -0.730241 0)
(-0.398803 -0.696849 0)
(-0.461173 -0.647314 0)
(-0.511064 -0.581966 0)
(-0.540471 -0.508228 0)
(-0.548083 -0.439324 0)
(-0.542756 -0.385149 0)
(-0.534786 -0.346028 0)
(-0.530301 -0.318806 0)
(-0.533023 -0.299592 0)
(-0.545046 -0.28473 0)
(-0.567707 -0.270511 0)
(-0.601841 -0.252884 0)
(-0.647552 -0.226916 0)
(-0.703633 -0.186978 0)
(-0.765782 -0.126317 0)
(-0.825745 -0.035974 0)
(-0.00986099 -0.670434 0)
(-0.0546906 -0.725036 0)
(-0.100573 -0.721872 0)
(-0.148527 -0.716324 0)
(-0.199025 -0.707122 0)
(-0.252022 -0.692487 0)
(-0.306596 -0.67023 0)
(-0.360571 -0.638411 0)
(-0.410312 -0.596132 0)
(-0.451041 -0.544595 0)
(-0.478875 -0.488223 0)
(-0.493649 -0.433716 0)
(-0.499563 -0.386322 0)
(-0.502099 -0.347547 0)
(-0.505718 -0.316373 0)
(-0.513434 -0.290549 0)
(-0.527154 -0.267432 0)
(-0.547973 -0.244057 0)
(-0.576208 -0.217024 0)
(-0.611301 -0.182532 0)
(-0.651294 -0.136821 0)
(-0.691839 -0.0761823 0)
(-0.726897 0.00384287 0)
(-0.00944381 -0.629351 0)
(-0.052574 -0.680636 0)
(-0.0961186 -0.676126 0)
(-0.140799 -0.668824 0)
(-0.186742 -0.65779 0)
(-0.233672 -0.641835 0)
(-0.280713 -0.619679 0)
(-0.326209 -0.590419 0)
(-0.367824 -0.554018 0)
(-0.402963 -0.511707 0)
(-0.429727 -0.4662 0)
(-0.448043 -0.421006 0)
(-0.459995 -0.379047 0)
(-0.468753 -0.341649 0)
(-0.477342 -0.308678 0)
(-0.488015 -0.278933 0)
(-0.50224 -0.25057 0)
(-0.520787 -0.221342 0)
(-0.543715 -0.188703 0)
(-0.570087 -0.149933 0)
(-0.59802 -0.10279 0)
(-0.624067 -0.0454501 0)
(-0.643881 0.0246309 0)
(-0.00888477 -0.590451 0)
(-0.0496658 -0.638593 0)
(-0.0903794 -0.633367 0)
(-0.131615 -0.625218 0)
(-0.173298 -0.613486 0)
(-0.215065 -0.597385 0)
(-0.256179 -0.57619 0)
(-0.295483 -0.549563 0)
(-0.331509 -0.517776 0)
(-0.36279 -0.481847 0)
(-0.388325 -0.443458 0)
(-0.408143 -0.404625 0)
(-0.423305 -0.366987 0)
(-0.435595 -0.331389 0)
(-0.446985 -0.29795 0)
(-0.459118 -0.266147 0)
(-0.473063 -0.234776 0)
(-0.489299 -0.20224 0)
(-0.507681 -0.16673 0)
(-0.527351 -0.126376 0)
(-0.546634 -0.080028 0)
(-0.56305 -0.0268444 0)
(-0.573667 0.0345494 0)
(-0.0082442 -0.554106 0)
(-0.0462912 -0.599331 0)
(-0.0839739 -0.593806 0)
(-0.121789 -0.585376 0)
(-0.159584 -0.573619 0)
(-0.196983 -0.558019 0)
(-0.233382 -0.538154 0)
(-0.267964 -0.513949 0)
(-0.299806 -0.48576 0)
(-0.328082 -0.454391 0)
(-0.352266 -0.420956 0)
(-0.372354 -0.386621 0)
(-0.388964 -0.352387 0)
(-0.403063 -0.318728 0)
(-0.415827 -0.285698 0)
(-0.428422 -0.253128 0)
(-0.441613 -0.220343 0)
(-0.455673 -0.186281 0)
(-0.470397 -0.149723 0)
(-0.485009 -0.109492 0)
(-0.498263 -0.0649812 0)
(-0.50836 -0.0160714 0)
(-0.513449 0.0382405 0)
(-0.0075813 -0.52054 0)
(-0.042729 -0.563033 0)
(-0.0773547 -0.557473 0)
(-0.11187 -0.549111 0)
(-0.146098 -0.537689 0)
(-0.179722 -0.522872 0)
(-0.212262 -0.504419 0)
(-0.243111 -0.482371 0)
(-0.271652 -0.457054 0)
(-0.297389 -0.429067 0)
(-0.320067 -0.399212 0)
(-0.339697 -0.368231 0)
(-0.356598 -0.336701 0)
(-0.371356 -0.304943 0)
(-0.384601 -0.272894 0)
(-0.397037 -0.240442 0)
(-0.409249 -0.207343 0)
(-0.421385 -0.172982 0)
(-0.433213 -0.136569 0)
(-0.444117 -0.0973877 0)
(-0.453185 -0.0552474 0)
(-0.459182 -0.0101712 0)
(-0.460927 0.0383809 0)
(-0.0069182 -0.489789 0)
(-0.0391386 -0.529717 0)
(-0.0707826 -0.524278 0)
(-0.10218 -0.516186 0)
(-0.133151 -0.505263 0)
(-0.163436 -0.491297 0)
(-0.192664 -0.474179 0)
(-0.220389 -0.453999 0)
(-0.246183 -0.431026 0)
(-0.269713 -0.405693 0)
(-0.290819 -0.37856 0)
(-0.309546 -0.35018 0)
(-0.326064 -0.320896 0)
(-0.340703 -0.290887 0)
(-0.353839 -0.260145 0)
(-0.365765 -0.228443 0)
(-0.376895 -0.195768 0)
(-0.387355 -0.161885 0)
(-0.396927 -0.126324 0)
(-0.405134 -0.088697 0)
(-0.411312 -0.0489772 0)
(-0.414642 -0.00740421 0)
(-0.414394 0.0365026 0)
(-0.0062743 -0.461802 0)
(-0.0356232 -0.499306 0)
(-0.0643897 -0.494057 0)
(-0.092866 -0.486312 0)
(-0.120883 -0.475954 0)
(-0.1482 -0.462848 0)
(-0.174512 -0.446958 0)
(-0.19949 -0.428386 0)
(-0.222835 -0.407345 0)
(-0.244325 -0.384159 0)
(-0.263839 -0.359223 0)
(-0.281406 -0.332931 0)
(-0.297158 -0.305563 0)
(-0.311227 -0.277195 0)
(-0.323821 -0.247831 0)
(-0.335089 -0.217312 0)
(-0.345149 -0.18552 0)
(-0.354171 -0.152579 0)
(-0.361975 -0.118272 0)
(-0.368199 -0.0824032 0)
(-0.372393 -0.0450525 0)
(-0.373978 -0.00651263 0)
(-0.372594 0.0335694 0)
(-0.00565885 -0.436456 0)
(-0.0322545 -0.471699 0)
(-0.0582679 -0.466663 0)
(-0.0839926 -0.459279 0)
(-0.109278 -0.449484 0)
(-0.133914 -0.437204 0)
(-0.157636 -0.42244 0)
(-0.180176 -0.405274 0)
(-0.201308 -0.385863 0)
(-0.220872 -0.364451 0)
(-0.238783 -0.341333 0)
(-0.255047 -0.316782 0)
(-0.269755 -0.291035 0)
(-0.282996 -0.264199 0)
(-0.29481 -0.236209 0)
(-0.305285 -0.207034 0)
(-0.314362 -0.176504 0)
(-0.32212 -0.144755 0)
(-0.328524 -0.111886 0)
(-0.333295 -0.0778193 0)
(-0.336111 -0.0427189 0)
(-0.336582 -0.00682638 0)
(-0.334608 0.030184 0)
(-0.00508529 -0.413651 0)
(-0.0290767 -0.446784 0)
(-0.052494 -0.44198 0)
(-0.0756193 -0.434955 0)
(-0.0983327 -0.425678 0)
(-0.120462 -0.414137 0)
(-0.141793 -0.400361 0)
(-0.162113 -0.384408 0)
(-0.181231 -0.366388 0)
(-0.199011 -0.346482 0)
(-0.215369 -0.324908 0)
(-0.230294 -0.301868 0)
(-0.243826 -0.277542 0)
(-0.256039 -0.252074 0)
(-0.266938 -0.225456 0)
(-0.276485 -0.197626 0)
(-0.284655 -0.168541 0)
(-0.291348 -0.138157 0)
(-0.296631 -0.106777 0)
(-0.300325 -0.0744792 0)
(-0.302203 -0.0414444 0)
(-0.301965 -0.00782808 0)
(-0.299727 0.0266977 0)
(-0.0045515 -0.393229 0)
(-0.0260744 -0.424398 0)
(-0.0470554 -0.419834 0)
(-0.0677582 -0.413156 0)
(-0.0880612 -0.40436 0)
(-0.107823 -0.393472 0)
(-0.126885 -0.380537 0)
(-0.14509 -0.365606 0)
(-0.162286 -0.348763 0)
(-0.178348 -0.330143 0)
(-0.193193 -0.309907 0)
(-0.206792 -0.288204 0)
(-0.219144 -0.265175 0)
(-0.230273 -0.240959 0)
(-0.240193 -0.215632 0)
(-0.248819 -0.189155 0)
(-0.256078 -0.161494 0)
(-0.261889 -0.13259 0)
(-0.266264 -0.102658 0)
(-0.26914 -0.0720128 0)
(-0.270378 -0.040843 0)
(-0.269727 -0.0091978 0)
(-0.26743 0.0233205 0)
(-0.00403835 -0.375057 0)
(-0.0232136 -0.404382 0)
(-0.0418926 -0.40004 0)
(-0.0603113 -0.39369 0)
(-0.0783545 -0.385348 0)
(-0.0958986 -0.375053 0)
(-0.112822 -0.362848 0)
(-0.129007 -0.348783 0)
(-0.144336 -0.332934 0)
(-0.158709 -0.315405 0)
(-0.172053 -0.296315 0)
(-0.184326 -0.275782 0)
(-0.195502 -0.253929 0)
(-0.205562 -0.23088 0)
(-0.214496 -0.206743 0)
(-0.222252 -0.181579 0)
(-0.22868 -0.155315 0)
(-0.233707 -0.127853 0)
(-0.237333 -0.0993301 0)
(-0.239592 -0.070183 0)
(-0.240414 -0.0406722 0)
(-0.239536 -0.0107868 0)
(-0.237295 0.0201597 0)
(-0.0035524 -0.358949 0)
(-0.0205062 -0.386624 0)
(-0.0369853 -0.382497 0)
(-0.0532108 -0.376455 0)
(-0.0690914 -0.368531 0)
(-0.0845323 -0.358764 0)
(-0.0994371 -0.347195 0)
(-0.11371 -0.333872 0)
(-0.127255 -0.318865 0)
(-0.139992 -0.302255 0)
(-0.151858 -0.284137 0)
(-0.162806 -0.264616 0)
(-0.172798 -0.243809 0)
(-0.181796 -0.221834 0)
(-0.189762 -0.198798 0)
(-0.196659 -0.174811 0)
(-0.202382 -0.149888 0)
(-0.206743 -0.123834 0)
(-0.209741 -0.0966482 0)
(-0.211512 -0.0688145 0)
(-0.212054 -0.0407387 0)
(-0.211116 -0.0124008 0)
(-0.208999 0.0172559 0)
(-0.0031046 -0.344792 0)
(-0.0179515 -0.371032 0)
(-0.0323237 -0.367123 0)
(-0.0464459 -0.361371 0)
(-0.0602589 -0.35382 0)
(-0.0736925 -0.344509 0)
(-0.0866694 -0.333482 0)
(-0.0991082 -0.320788 0)
(-0.11093 -0.306492 0)
(-0.122068 -0.290658 0)
(-0.132466 -0.27337 0)
(-0.142078 -0.254723 0)
(-0.150867 -0.23483 0)
(-0.15879 -0.213809 0)
(-0.165807 -0.191767 0)
(-0.171872 -0.168816 0)
(-0.176931 -0.145071 0)
(-0.180795 -0.120399 0)
(-0.183309 -0.0944921 0)
(-0.184692 -0.0677782 0)
(-0.185071 -0.0408994 0)
(-0.184213 -0.0139248 0)
(-0.182275 0.014612 0)
(-0.00266853 -0.332564 0)
(-0.0154708 -0.35752 0)
(-0.0278185 -0.353814 0)
(-0.0399474 -0.348324 0)
(-0.0518103 -0.341096 0)
(-0.0633455 -0.332176 0)
(-0.0744858 -0.321612 0)
(-0.0851627 -0.309458 0)
(-0.095312 -0.295767 0)
(-0.104877 -0.280597 0)
(-0.113809 -0.264019 0)
(-0.122069 -0.246119 0)
(-0.129625 -0.227007 0)
(-0.136448 -0.206801 0)
(-0.142507 -0.185615 0)
(-0.14776 -0.163567 0)
(-0.152168 -0.140797 0)
(-0.155636 -0.117341 0)
(-0.157868 -0.0927279 0)
(-0.158977 -0.0669782 0)
(-0.159271 -0.0410548 0)
(-0.158572 -0.0152459 0)
(-0.156857 0.0122225 0)
(-0.00223581 -0.322289 0)
(-0.0130137 -0.346036 0)
(-0.0233966 -0.342497 0)
(-0.0336181 -0.337221 0)
(-0.0436199 -0.330266 0)
(-0.0533433 -0.321681 0)
(-0.0627294 -0.311516 0)
(-0.0717224 -0.299821 0)
(-0.0802695 -0.286647 0)
(-0.0883222 -0.272042 0)
(-0.0958353 -0.25607 0)
(-0.102771 -0.238809 0)
(-0.109104 -0.220358 0)
(-0.114817 -0.200837 0)
(-0.119898 -0.180364 0)
(-0.124324 -0.159067 0)
(-0.128067 -0.137079 0)
(-0.131106 -0.11454 0)
(-0.13322 -0.0911494 0)
(-0.134199 -0.0663523 0)
(-0.13444 -0.041173 0)
(-0.13393 -0.0163179 0)
(-0.132482 0.0100904 0)
(-0.00176987 -0.313964 0)
(-0.0105807 -0.336515 0)
(-0.0190647 -0.333083 0)
(-0.0274444 -0.327979 0)
(-0.0356399 -0.321253 0)
(-0.0435971 -0.312951 0)
(-0.0512732 -0.303119 0)
(-0.0586316 -0.291805 0)
(-0.0656333 -0.279057 0)
(-0.0722381 -0.264923 0)
(-0.0784021 -0.249464 0)
(-0.0840839 -0.23275 0)
(-0.0892538 -0.214868 0)
(-0.0938965 -0.195925 0)
(-0.0980104 -0.176039 0)
(-0.101596 -0.155339 0)
(-0.10465 -0.133958 0)
(-0.107184 -0.112047 0)
(-0.109143 -0.089591 0)
(-0.110149 -0.0658172 0)
(-0.110382 -0.0412265 0)
(-0.11008 -0.0170969 0)
(-0.108942 0.0082608 0)
(-0.00106257 -0.307771 0)
(-0.00810619 -0.328933 0)
(-0.0147903 -0.325513 0)
(-0.0214209 -0.320542 0)
(-0.0278866 -0.31402 0)
(-0.0341268 -0.305964 0)
(-0.040115 -0.296405 0)
(-0.045847 -0.285385 0)
(-0.0513181 -0.272959 0)
(-0.0565015 -0.259188 0)
(-0.0613549 -0.244137 0)
(-0.0658366 -0.227873 0)
(-0.0699104 -0.210467 0)
(-0.0735527 -0.192013 0)
(-0.0767579 -0.172609 0)
(-0.0795353 -0.152378 0)
(-0.0819072 -0.131454 0)
(-0.0839026 -0.109975 0)
(-0.0855597 -0.0880729 0)
(-0.0866108 -0.0652337 0)
(-0.0869086 -0.0411943 0)
(-0.0868266 -0.0175524 0)
(-0.0860893 0.0068095 0)
(0.000122267 -0.304638 0)