/*--------------------------------*- C++ -*----------------------------------*\
| =========                 |                                                 |
| \\      /  F ield         | OpenFOAM: The Open Source CFD Toolbox           |
|  \\    /   O peration     | Version:  v1912                                 |
|   \\  /    A nd           | Website:  www.openfoam.com                      |
|    \\/     M anipulation  |                                                 |
\*---------------------------------------------------------------------------*/
FoamFile
{
    version     2.0;
    format      ascii;
    class       volScalarField;
    location    "0.55";
    object      alpha.water;
}
// * * * * * * * * * * * * * * * * * * * * * * * * * * * * * * * * * * * * * //

dimensions      [0 0 0 0 0 0 0];


internalField   nonuniform List<scalar> 
9072
(
1
1
1
1
1
1
1
1
1
1
1
1
1
1
1
1
1
0.996629
0.885233
0.997815
0.974339
0.999396
0.99942
1
1
1
1
1
1
1
1
1
1
1
1
1
1
1
1
1
1
0.989546
0.997981
0.999987
0.961643
0.939311
1
1
1
1
1
1
1
1
1
1
1
1
1
1
1
1
1
1
1
1
0.998831
0.841081
0.982057
1
1
1
1
1
1
1
1
1
1
1
1
1
1
1
1
1
1
1
1
1
0.841081
0.934862
1
1
1
1
1
1
1
1
1
1
1
1
1
1
1
1
1
1
1
1
1
0.999841
1
1
1
1
1
1
1
1
1
1
1
1
1
1
1
1
1
1
1
1
1
1
1
1
1
1
1
1
1
1
1
1
1
1
1
1
1
1
1
1
1
1
1
1
1
1
0.999999
1
1
0.999997
0.999985
1
1
1
1
1
1
1
1
1
1
1
1
1
1
1
1
1
1
1
0.0359978
0.505349
0.716322
0.879187
0.845308
0.970875
0.989331
0.791678
0.352375
0.327484
0.314463
0.347163
0.360463
0.497779
0.454906
0.659175
0.662329
0.671333
0.556152
0.00362547
4.227e-06
1.74508e-05
0.58661
0.974609
0.990124
0.852558
0.668817
0.00782837
0.0273408
0.179661
0.18241
0.0956315
0.0291445
0.00184119
0.000106172
0.00057464
0.199055
0.720225
6.81948e-05
1.63331e-05
1.98899e-06
1.88789e-05
0.973629
0.988226
0.254346
0.00935382
0.000206001
0.000105756
0.000389145
0.000242292
0.000213665
0.000165342
9.26708e-05
0.000106172
0.000140808
0.00101273
0.267177
1.06394e-05
7.67624e-06
2.37034e-06
0.346451
0.996689
0.340585
0.00369002
0.000962778
0.000350767
0.00155274
0.00155605
0.00154069
0.00144408
0.00133505
0.00144004
0.00144637
0.000158324
0.000157992
0.0820368
9.5195e-08
2.99324e-07
1.81316e-05
0.946764
0.998089
0.174276
0.000574884
0.000227754
0.000254892
0.00154213
0.000598636
7.17409e-05
6.87031e-05
6.77238e-05
6.80335e-05
0.000891002
0.00146407
0.000215241
0.085925
1.72047e-09
1.11463e-08
0.507147
0.999684
0.992554
0.0196363
0.000102217
4.51851e-05
5.39631e-05
0.00109567
7.64395e-05
7.31196e-05
0.00017236
6.76211e-05
6.76211e-05
7.68833e-05
0.000924746
0.00039311
0.0139629
1.32982e-09
1.28735e-09
0.999566
0.999851
0.884174
0.00230413
1.83806e-05
5.64178e-06
9.59265e-05
0.00103256
8.11515e-05
8.89619e-05
0.000168252
6.79016e-05
6.80385e-05
0.00339827
0.00274366
0.000971806
3.43739e-05
0.380165
0.896015
0.999981
0.999925
0.358051
0.000675927
3.1476e-06
8.24224e-07
6.24764e-05
0.000529435
0.00146639
0.00144636
0.000106386
7.02003e-05
7.03974e-05
0.00354834
0.0035917
0.00012355
1.58409e-06
0.937775
0.99985
0.83218
0.576832
0.974974
0.998785
0.999989
0.999995
0.999998
1
1
1
1
1
1
1
1
1
1
1
1
1
1
1.97724e-10
2.16052e-06
0.00374926
0.00400113
1.3994e-07
0.00717549
0.0398599
0.0799201
0.131882
0.221865
0.380097
0.635695
0.926431
1
1
1
1
1
1
1
1
1
1
6.26313e-14
1.29011e-06
7.70063e-05
5.18616e-09
4.44588e-15
2.89769e-14
1.19122e-12
4.3615e-11
5.80304e-05
3.17319e-05
2.07027e-06
2.0885e-06
3.61802e-06
0.0185379
0.189002
0.674434
1
1
1
1
1
1
1
-2.84965e-14
4.57466e-09
2.57935e-09
-3.97721e-16
0
-2.21269e-13
-2.32338e-14
8.66155e-14
1.00819e-13
7.22477e-05
1.8511e-05
1.23481e-05
1.81847e-05
2.50903e-05
9.63587e-06
6.16229e-06
0.00198253
0.124246
0.537245
0.994524
0.999999
1
1
-3.66082e-14
4.25345e-15
2.47034e-31
-4.0648e-14
-1.46386e-13
-3.15213e-13
-1.3001e-13
1.26613e-12
3.69447e-12
2.46922e-12
7.82848e-09
1.16038e-08
6.14922e-07
1.81099e-08
1.61783e-08
2.01825e-05
1.77001e-05
6.33907e-08
6.35402e-08
6.87523e-08
0.0141613
0.301505
0.834507
-3.3869e-14
-4.1572e-16
-3.73312e-15
-2.18901e-14
-8.34277e-14
-1.8173e-13
-1.35981e-15
3.78204e-12
5.74139e-12
2.47079e-12
2.17579e-07
5.74963e-08
5.98842e-07
1.94954e-06
1.61767e-08
1.63845e-07
8.55381e-08
1.62491e-08
7.03724e-07
4.80881e-07
8.13131e-08
8.53981e-08
9.37996e-08
-1.81187e-14
-1.06878e-16
-1.29618e-15
-8.85072e-15
-3.60358e-14
-6.98629e-14
3.43434e-14
1.75703e-12
4.09237e-12
3.5582e-12
3.55825e-12
7.45926e-09
1.98214e-09
2.71688e-12
1.63019e-08
4.97702e-08
1.05916e-10
6.86266e-12
5.772e-07
1.295e-06
2.07827e-07
5.51506e-10
5.8564e-07
-5.79867e-15
-1.99476e-17
-3.34336e-16
-2.79703e-15
-1.15079e-14
-2.01122e-14
-1.1007e-15
2.04122e-13
8.75427e-13
1.00444e-11
6.92195e-10
4.32287e-09
1.53471e-10
2.55769e-12
1.40255e-09
1.33072e-08
5.76913e-09
7.94531e-12
8.61639e-12
3.46338e-12
2.42491e-09
6.25297e-10
3.20632e-10
-1.5379e-15
-2.65307e-18
-7.01691e-17
-7.11691e-16
-2.83968e-15
-4.55281e-15
-1.06068e-15
9.22331e-15
2.59272e-13
6.30584e-12
9.43383e-13
2.18603e-13
6.87204e-13
2.05464e-12
1.04531e-12
2.70732e-13
2.71645e-13
3.41758e-12
1.872e-11
3.48601e-12
5.77033e-08
3.6352e-09
4.38967e-09
-3.67155e-16
-2.54902e-19
-1.25999e-17
-1.45056e-16
-5.51177e-16
-8.22836e-16
-3.08797e-16
2.57637e-16
1.12524e-14
4.18041e-14
4.27409e-14
6.37306e-14
1.62946e-13
3.30974e-13
2.72104e-13
1.72695e-13
2.58065e-13
4.49408e-13
5.61495e-12
2.06009e-10
1.36397e-09
6.93714e-05
0.000290249
-7.22297e-17
-2.35394e-20
-1.98564e-18
-2.3775e-17
-8.36066e-17
-1.16291e-16
-5.39347e-17
3.60115e-19
1.09455e-16
8.88278e-16
2.28798e-15
2.82488e-15
9.55365e-15
2.06403e-14
1.43063e-14
9.50032e-15
2.47049e-14
4.03096e-14
2.23779e-12
5.35383e-10
2.84673e-10
4.31196e-05
0.000540643
-1.01675e-17
-3.62167e-21
-2.67094e-19
-3.05696e-18
-9.67761e-18
-1.24194e-17
-6.38623e-18
-7.33036e-19
2.41876e-18
1.93091e-17
5.03038e-17
8.20595e-17
3.88652e-16
7.78634e-16
5.21461e-16
5.72312e-16
2.24544e-15
3.81269e-15
3.12815e-12
2.02709e-10
3.35978e-10
2.13831e-11
2.35418e-10
-1.06932e-18
-3.64968e-22
-2.8319e-20
-2.93997e-19
-8.24196e-19
-9.69054e-19
-5.21904e-19
-1.00576e-19
3.22094e-20
3.13132e-19
7.6179e-19
1.47767e-18
8.00691e-18
1.57843e-17
1.21345e-17
2.09905e-17
1.14306e-16
2.47147e-16
5.18804e-16
1.57622e-12
6.07344e-11
4.05091e-11
1.18995e-12
-9.6035e-20
-2.67164e-23
-2.16439e-21
-1.99573e-20
-4.93639e-20
-5.30873e-20
-2.88448e-20
-6.99724e-21
1.50835e-23
3.57121e-21
8.2748e-21
1.65703e-20
8.21896e-20
1.61665e-19
1.48049e-19
3.80381e-19
2.48471e-18
6.68269e-18
9.4633e-18
2.2976e-17
1.09439e-13
2.34335e-12
1.02147e-12
-9.05663e-21
-1.32626e-24
-1.10006e-22
-8.95415e-22
-1.96713e-21
-1.94547e-21
-1.03761e-21
-2.80777e-22
-1.87153e-23
2.69753e-23
6.84382e-23
1.24666e-22
4.04491e-22
7.58247e-22
8.14674e-22
3.22331e-21
2.44241e-20
8.6756e-20
1.44601e-19
8.11977e-20
2.46055e-19
1.42597e-15
3.79964e-14
-9.98489e-22
-4.01431e-26
-3.40065e-24
-2.44726e-23
-4.83791e-23
-4.46505e-23
-2.30855e-23
-6.53321e-24
-7.203e-25
1.23886e-25
4.1097e-25
7.11749e-25
1.04408e-24
6.41777e-26
-5.24782e-24
-7.55401e-24
4.70074e-23
3.39299e-22
7.29553e-22
-8.18324e-22
-1.30099e-20
-4.75769e-20
1.07159e-20
-1.12899e-22
-7.00442e-28
-5.65224e-26
-3.62503e-25
-6.54205e-25
-5.71044e-25
-2.84992e-25
-8.12582e-26
-1.08563e-26
1.92301e-28
9.05309e-28
-6.71776e-27
-1.11537e-25
-1.04413e-24
-5.33039e-24
-1.52678e-23
-3.01713e-23
-5.14225e-23
-1.35381e-22
-9.29899e-22
-6.75617e-21
-3.34259e-20
-1.04366e-19
-1.13342e-23
-6.69586e-30
-4.11276e-28
-2.3818e-27
-3.96783e-27
-3.28508e-27
-1.5668e-27
-4.35891e-28
-6.30989e-29
-2.49657e-29
-5.55504e-28
-6.53801e-27
-4.33538e-26
-2.15811e-25
-8.24141e-25
-2.34392e-24
-5.24431e-24
-1.07733e-23
-3.76668e-23
-2.94844e-22
-2.20121e-21
-1.13998e-20
-3.83309e-20
-9.54739e-25
-5.11672e-32
-8.27832e-31
-4.39459e-30
-6.78437e-30
-5.2806e-30
-2.33229e-30
-6.63377e-31
-7.8209e-31
-1.09895e-29
-1.52246e-28
-1.22997e-27
-6.07077e-27
-2.09934e-26
-5.68259e-26
-1.2911e-25
-2.64401e-25
-7.64076e-25
-7.37197e-24
-8.34592e-23
-6.42075e-22
-3.28777e-21
-1.0785e-20
-6.6602e-26
-1.15986e-33
-2.12019e-37
-2.03402e-36
-4.33183e-35
-4.32604e-34
-3.18078e-33
-1.90114e-32
-1.51743e-31
-1.72095e-30
-1.69628e-29
-1.07101e-28
-4.39547e-28
-1.28335e-27
-2.90803e-27
-5.52977e-27
-1.11499e-26
-1.01622e-25
-2.06994e-24
-2.5922e-23
-1.96743e-22
-8.97721e-22
4.97958e-23
-3.84176e-27
-8.05852e-35
-9.64984e-39
-1.2312e-37
-2.76419e-36
-3.66781e-35
-3.00446e-34
-1.98753e-33
-1.49372e-32
-1.3105e-31
-9.73909e-31
-4.96307e-30
-1.75066e-29
-4.61296e-29
-9.81125e-29
-1.83774e-28
-7.276e-28
-2.35568e-26
-5.93686e-25
-7.86164e-24
-5.4257e-23
-2.96795e-39
2.27485e-20
-1.82965e-28
-1.4191e-35
-6.85136e-40
-4.67562e-39
-1.08827e-37
-1.53718e-36
-1.42246e-35
-1.02601e-34
-7.19743e-34
-5.05808e-33
-2.93883e-32
-1.23743e-31
-3.82603e-31
-9.29304e-31
-1.90835e-30
-4.14366e-30
-8.93567e-29
-5.16188e-27
-1.44985e-25
-2.01844e-24
-2.09662e-24
2.71627e-22
5.88186e-19
-7.18315e-30
-4.04998e-36
-5.26843e-41
-1.0055e-40
-2.39423e-39
-3.47565e-38
-3.38329e-37
-2.50264e-36
-1.60332e-35
-9.17208e-35
-4.26962e-34
-1.51877e-33
-4.21811e-33
-9.71731e-33
-2.01936e-32
-1.27943e-31
-1.37814e-29
-9.50838e-28
-2.87743e-26
-4.25398e-25
-1.51323e-24
7.56761e-22
1.01461e-17
-2.32696e-31
-6.50759e-37
-2.61991e-42
-1.02036e-42
-2.45357e-41
-3.58543e-40
-3.4793e-39
-2.48384e-38
-1.41346e-37
-6.60294e-37
-2.49814e-36
-7.65247e-36
-1.96827e-35
-4.51218e-35
-1.3971e-34
-1.39367e-32
-2.26496e-30
-1.63607e-28
-4.97898e-27
-7.36026e-26
-5.99265e-25
7.44772e-24
3.76613e-19
-6.24834e-33
-3.5191e-38
-7.18052e-44
-3.30679e-45
-7.86281e-44
-1.12677e-42
-1.0453e-41
-6.83635e-41
-3.3603e-40
-1.30251e-39
-4.17834e-39
-1.16811e-38
-3.00713e-38
-8.61431e-38
-6.93778e-36
-2.39962e-33
-4.07403e-31
-2.88881e-29
-8.31788e-28
-1.14691e-26
-9.54255e-26
-1.49636e-25
1.41538e-22
-1.39749e-34
-1.13987e-39
-1.4009e-45
-8.97065e-49
-1.80077e-47
-2.23889e-46
-1.87003e-45
-1.1556e-44
-5.70059e-44
-2.40204e-43
-9.03015e-43
-3.16921e-42
-1.19473e-41
-1.30421e-39
-8.98358e-37
-3.47226e-34
-6.05168e-32
-4.31059e-30
-1.18451e-28
-1.46455e-27
-1.0853e-26
-4.79867e-26
2.26554e-26
-2.61014e-36
-2.81668e-41
-2.80288e-47
-1.39095e-52
-4.48812e-54
-6.28764e-53
-1.06229e-51
-1.74522e-50
-2.33461e-49
-2.42309e-48
-2.03883e-47
-1.93328e-46
-9.18357e-44
-1.19177e-40
-9.72982e-38
-4.07431e-35
-7.45636e-33
-6.02088e-31
-1.68483e-29
-1.7489e-28
-9.98961e-28
-3.58064e-27
4.01191e-27
-4.06516e-38
-6.4986e-43
-8.17411e-49
-4.36452e-54
-7.5092e-59
-1.18067e-60
-2.84408e-59
-3.87858e-57
-1.96791e-55
-6.16038e-54
-8.97663e-52
-2.41901e-48
-5.56633e-45
-8.89508e-42
-8.39769e-39
-3.85165e-36
-8.28405e-34
-1.00593e-31
-3.11791e-30
-2.70845e-29
-1.11334e-28
-2.38011e-28
2.10793e-27
-5.23689e-40
-1.58014e-44
-3.62317e-50
-2.29907e-55
-3.42279e-60
-8.83986e-65
-1.21716e-68
-1.01857e-64
-5.98666e-61
-4.06055e-57
-2.16692e-53
-8.68298e-50
-2.57708e-46
-5.12388e-43
-5.62774e-40
-3.01108e-37
-1.00221e-34
-2.12825e-32
-6.83938e-31
-5.20674e-30
-1.77712e-29
-3.05743e-29
1.75342e-28
-5.48058e-42
-3.58663e-46
-1.6757e-51
-1.37802e-56
-2.002e-61
-4.4615e-66
-1.69935e-70
-4.28784e-67
-5.68001e-63
-5.50485e-59
-3.98093e-55
-2.18356e-51
-8.73316e-48
-2.19149e-44
-2.88764e-41
-2.1895e-38
-1.44476e-35
-4.4178e-33
-1.32759e-31
-8.87124e-31
-2.75167e-30
-4.93651e-30
2.95629e-30
-4.52064e-44
-6.0929e-48
-5.26897e-53
-5.70993e-58
-8.77958e-63
-1.8503e-67
-5.43937e-72
-1.57438e-69
-2.97122e-65
-4.21731e-61
-4.54354e-57
-3.69617e-53
-2.06798e-49
-6.68921e-46
-1.19181e-42
-1.74513e-39
-2.05349e-36
-7.47806e-34
-1.99293e-32
-1.17057e-31
-4.04585e-31
-1.12308e-30
3.70726e-31
-2.81597e-46
-6.76594e-50
-9.08835e-55
-1.23373e-59
-2.03938e-64
-4.2315e-69
-1.14891e-73
-6.80584e-72
-9.68163e-68
-1.76489e-63
-3.06424e-59
-3.97857e-55
-3.21882e-51
-1.45281e-47
-4.6795e-44
-1.44126e-40
-2.37676e-37
-9.7028e-35
-2.2342e-33
-1.24781e-32
-8.6968e-32
-4.35025e-31
3.39353e-30
-1.25458e-48
-4.59003e-52
-7.94306e-57
-1.23246e-61
-2.1131e-66
-4.27706e-71
-1.0924e-75
-1.2878e-73
-9.72351e-70
-7.18317e-66
-1.20156e-61
-2.45922e-57
-3.08869e-53
-2.51473e-49
-1.90671e-45
-9.83668e-42
-2.05223e-38
-9.39219e-36
-1.83301e-34
-1.38997e-33
-2.84389e-32
-1.71141e-31
2.14221e-30
-3.74753e-51
-1.7993e-54
-3.31871e-59
-5.22387e-64
-8.60987e-69
-1.61158e-73
-3.78784e-78
-1.67491e-75
-1.39646e-71
-7.8074e-68
-4.33664e-64
-7.88153e-60
-1.88402e-55
-4.11032e-51
-6.41102e-47
-4.6629e-43
-1.23607e-39
-6.46478e-37
-1.08271e-35
-2.41322e-34
-9.21437e-33
-5.52699e-32
-2.33701e-29
-6.97858e-54
-3.84596e-57
-6.29345e-62
-8.84839e-67
-1.27199e-71
-2.03083e-76
-4.42696e-81
-9.13784e-78
-9.67066e-74
-6.81042e-70
-3.1946e-66
-1.76169e-62
-8.98677e-58
-5.16505e-53
-1.3283e-48
-1.35191e-44
-4.81676e-41
-2.98613e-38
-5.3275e-37
-5.23739e-35
-2.42053e-33
-1.53651e-32
-8.85182e-29
-7.46066e-57
-4.2658e-60
-5.3407e-65
-5.95239e-70
-6.74996e-75
-8.41378e-80
-1.94641e-84
-1.68911e-80
-2.63968e-76
-2.73066e-72
-1.83052e-68
-8.34659e-65
-2.53751e-60
-2.97323e-55
-1.3001e-50
-2.04213e-46
-1.08912e-42
-8.64742e-40
-3.4216e-38
-9.5744e-36
-4.84938e-34
-5.06295e-33
-1.54779e-28
-4.15574e-60
-2.31641e-63
-1.97614e-68
-1.56687e-73
-1.27023e-78
-1.12842e-83
-3.52553e-88
-9.47168e-84
-2.50229e-79
-4.27916e-75
-4.63517e-71
-3.08556e-67
-2.46049e-63
-4.24693e-58
-3.98096e-53
-1.23566e-48
-1.21476e-44
-1.52249e-41
-2.75064e-39
-1.26752e-36
-7.08125e-35
-2.63069e-33
-1.61872e-28
-1.06291e-63
-5.62657e-67
-2.94539e-72
-1.48031e-77
-7.64154e-83
-4.31162e-88
-1.78317e-92
-1.16351e-87
-5.87948e-83
-1.89851e-78
-3.82613e-74
-4.64146e-70
-3.23947e-66
-4.14982e-62
-1.71926e-56
-1.89104e-51
-5.26518e-47
-1.82894e-43
-1.61275e-40
-1.09667e-37
-7.03875e-36
-1.37758e-33
-1.05346e-28
-1.03825e-67
-5.2366e-71
-1.48087e-76
-4.06016e-82
-1.13734e-87
-3.45231e-93
-9.71871e-98
-1.48809e-92
-1.74113e-87
-1.34028e-82
-6.39849e-78
-1.8076e-73
-2.8086e-69
-2.29047e-65
-2.00615e-61
-2.77725e-55
-6.79883e-50
-1.4574e-45
-4.89193e-42
-5.2921e-39
-4.26189e-37
-4.80159e-34
-4.06382e-29
-2.83492e-72
-1.43085e-75
-1.83489e-81
-2.23768e-87
-2.74187e-93
-3.58739e-99
-1.65539e-104
-5.49338e-99
-1.91659e-93
-4.63285e-88
-7.34056e-83
-6.59593e-78
-3.04411e-73
-6.50644e-69
-7.53743e-65
-3.74968e-60
-1.87962e-53
-3.18037e-48
-5.05386e-44
-1.06856e-40
-1.30763e-38
-9.00039e-35
-8.12587e-30
-1.12772e-77
-6.39161e-81
-2.67548e-87
-1.01655e-93
-3.78369e-100
-1.47609e-106
-6.48411e-113
-4.0164e-108
-5.13978e-102
-4.90165e-96
-3.10089e-90
-1.20101e-84
-2.39971e-79
-2.18833e-74
-8.17029e-70
-4.15945e-65
-7.4849e-59
-1.88842e-52
-4.47138e-47
-4.11378e-43
-1.34449e-40
-6.75263e-36
-6.28762e-31
-7.49982e-85
-9.67508e-88
-5.39411e-95
-2.48562e-102
-1.0365e-109
-3.92627e-117
-1.23989e-124
-3.78467e-124
-3.33728e-117
-2.28405e-110
-1.14992e-103
-3.72719e-97
-6.77914e-91
-5.62127e-85
-1.92294e-79
-1.69626e-74
-8.5573e-67
-5.39215e-60
-5.68489e-54
-1.31168e-48
-6.01268e-44
-8.48002e-38
-7.81767e-33
1
1
1
0.97144
1
1
1
1
1
1
1
1
1
1
1
1
0.966843
0.999657
0.999991
0.999998
1.6849e-07
0.0373126
0.190809
0.674429
9.41099e-07
9.18694e-08
9.13255e-08
9.16434e-08
3.14058e-05
3.16516e-05
2.15258e-05
9.21164e-08
1.7661e-07
2.71476e-05
3.16212e-05
8.33713e-06
3.45532e-05
2.07107e-07
1.31697e-07
8.26605e-08
0.000544489
0.000327702
9.61917e-07
8.20839e-08
3.60457e-05
0.000554941
0.000554941
0.000290886
1.62635e-13
-5.29427e-11
5.8686e-06
1.55905e-05
1.78011e-13
1.46085e-13
1.55957e-13
9.07964e-13
5.71716e-14
2.16401e-13
6.1467e-12
3.92193e-11
1.23862e-17
9.86654e-17
5.18433e-16
5.21412e-15
-2.25807e-19
-2.68478e-19
-1.98565e-19
1.10173e-20
-1.0051e-19
-1.69088e-19
-2.50648e-19
-1.07902e-19
-1.82131e-20
1.13843e-21
3.03475e-18
2.71681e-16
2.37355e-19
6.33176e-17
3.91028e-14
2.53235e-13
7.59196e-17
2.23269e-13
2.99931e-12
1.54555e-10
5.35562e-14
4.27268e-12
5.06262e-10
7.21105e-08
6.79335e-14
8.09524e-12
3.15538e-10
7.11128e-08
2.91188e-15
1.45389e-12
3.92819e-11
4.52777e-09
7.59263e-19
3.76806e-15
1.45318e-12
1.71724e-12
3.44948e-22
5.14403e-19
1.10404e-16
2.16274e-15
8.46902e-24
2.21398e-22
3.87056e-20
5.67077e-19
4.80485e-24
1.92525e-23
5.24712e-24
6.42043e-23
5.32689e-25
2.34151e-24
9.7594e-24
3.37841e-23
1.60175e-26
7.09639e-26
2.86586e-25
1.06481e-24
3.02129e-27
1.42665e-26
6.41251e-26
2.91154e-25
9.75754e-27
4.76957e-26
2.08884e-25
8.79028e-25
1.2346e-26
6.24573e-26
3.47933e-25
3.34786e-23
1.68299e-27
-1.17829e-26
4.35092e-25
4.71367e-22
-5.99295e-27
-1.87211e-25
-3.42812e-24
2.63702e-21
-1.60601e-26
-5.93922e-25
-2.4856e-23
2.48484e-23
-2.25436e-26
-1.23213e-24
-1.33639e-23
1.39591e-16
-2.11976e-26
-1.70039e-24
1.22136e-21
7.54338e-15
-1.28763e-26
-1.38642e-24
1.10485e-20
1.17876e-14
-4.15521e-27
-5.46147e-25
9.62675e-21
7.89731e-16
-5.13026e-28
-7.85496e-26
2.07677e-22
1.97441e-17
-1.00896e-29
-1.81158e-27
-1.34256e-28
-5.916e-25
0.958413
1
0.999996
0.99975
0.0408237
5.80295e-06
6.02186e-07
4.40639e-07
5.65516e-07
0.000256717
0.00147027
0.000952683
0.000589223
0.000351978
9.90558e-05
0.00336324
0.00356801
0.000146809
1.82733e-07
1
1
0.999995
0.144898
0.02926
1.83743e-06
1.55292e-06
4.30562e-07
4.29517e-07
8.52607e-06
1.21084e-05
0.00124701
0.00218835
0.00109464
0.00652478
1.33059e-05
0.00180874
3.94392e-05
1.85037e-07
1
1
0.608329
4.6601e-05
4.99319e-05
6.13459e-06
2.25616e-06
0.000132388
0.000132244
5.09736e-06
0.00133386
0.00217957
0.00209613
0.000324944
0.00683536
6.39935e-07
8.71759e-05
4.20667e-05
0.0456346
1
1
4.99419e-05
5.68895e-06
4.03517e-05
0.00775908
7.18349e-06
2.5856e-05
4.48447e-05
9.30806e-06
1.42961e-05
0.00159137
0.000232001
0.00187385
0.00218611
3.34145e-07
2.25921e-06
0.000124359
0.941556
1
0.863675
1.5895e-07
1.06169e-05
1.06696e-05
0.00791943
0.00791943
0.00752889
0.00332231
1.28604e-05
1.504e-05
0.000239591
0.000231993
0.0122614
0.00126444
2.90279e-07
3.784e-07
2.25688e-05
0.930163
0.99998
0.887128
7.37943e-08
3.78566e-06
4.68824e-06
5.98174e-05
0.00122558
0.003086
0.019472
0.00036557
0.00179159
0.00199662
0.00023935
0.011729
0.001075
2.90272e-07
3.07078e-07
0.000233666
0.831392
0.327405
0.960687
7.37943e-08
0.000268587
0.0095189
7.19002e-05
0.183681
0.999867
0.999894
0.31057
0.00103305
0.000279905
0.000260006
0.0113438
0.000810789
0.000102636
1.38603e-05
0.751888
0.99946
4.73667e-07
0.59093
0.802452
5.17951e-05
0.00421112
0.0825881
0.98098
0.999596
0.999892
0.999892
0.0142465
0.00315395
0.000440093
0.00957659
0.00333852
3.30144e-05
0.682331
0.999439
0.999463
9.06995e-08
4.25269e-05
0.452305
0.820305
0.306846
0.678336
0.968045
0.576273
0.758154
0.999867
0.408081
0.000238673
0.000258289
0.000155171
0.00317314
0.0186726
0.998442
0.999248
0.997908
8.21113e-08
5.12974e-05
7.18984e-06
0.0159617
0.266911
0.230529
0.00114702
6.68719e-06
6.08706e-06
0.590629
0.951491
7.24758e-05
4.22305e-05
4.22196e-05
4.20746e-05
4.20891e-05
0.465961
0.998828
0.997793
8.20824e-08
6.10965e-07
0.000410332
3.59824e-06
0.000296764
0.000571371
1.09005e-06
7.39478e-07
1.40628e-10
4.89418e-06
0.73397
0.805411
4.20214e-05
4.19767e-05
4.19014e-05
4.19072e-05
0.531185
0.601791
0.991106
0.000468666
0.000487771
0.000390145
1.16418e-06
9.48282e-05
0.000405379
4.97876e-10
5.1191e-11
4.09865e-10
2.46286e-10
5.51202e-07
0.496379
0.70078
0.236715
0.0858108
0.610966
0.380439
0.193161
0.996027
3.24341e-05
2.10222e-05
2.86971e-09
1.14282e-09
7.46344e-09
2.62589e-09
3.00594e-11
1.57747e-11
8.84141e-12
1.47921e-10
1.99029e-06
1.14014e-05
0.0452781
0.534466
0.399645
0.0404433
0.0106544
0.366851
0.995834
6.50394e-12
1.09318e-10
1.15005e-09
4.34234e-09
5.75782e-10
8.24742e-11
5.32058e-11
7.4787e-12
4.52569e-12
5.44959e-10
1.18502e-06
0.000164409
0.000129496
0.0141789
0.369693
0.705765
0.0109819
0.802053
0.988649
7.92456e-11
9.75341e-11
1.67754e-10
2.23095e-09
1.32319e-09
1.20114e-10
4.13127e-11
5.03321e-12
9.79259e-13
3.37175e-11
4.86093e-08
7.90009e-07
0.000280828
0.000193618
0.000239595
0.316301
0.898469
0.980434
0.980159
5.73411e-13
3.25227e-12
3.13179e-12
3.32284e-11
3.9677e-10
1.44844e-10
2.08839e-11
2.75888e-12
3.47639e-13
7.67485e-12
6.2267e-10
3.60086e-06
2.62104e-06
1.06881e-05
0.000255391
0.240475
0.892917
0.910482
0.996297
7.16657e-19
2.13145e-16
5.51034e-15
2.50861e-14
8.72582e-12
5.34444e-11
6.90961e-12
7.144e-13
1.55728e-13
4.15093e-12
6.9014e-11
1.12865e-08
1.99355e-06
0.00140288
0.202354
0.983315
0.833388
0.813186
0.995711
4.58696e-19
5.04559e-16
3.40573e-15
1.72181e-14
6.13357e-14
9.93471e-13
1.51932e-12
6.24373e-14
8.20292e-14
2.32191e-11
6.63175e-09
1.63483e-06
0.000267753
0.884499
0.992102
0.992103
0.992102
0.983138
0.996172
2.53958e-14
5.04551e-12
8.34594e-13
1.32607e-11
6.76258e-12
2.99387e-15
3.01239e-14
1.527e-14
6.48538e-13
4.03349e-10
1.54312e-07
2.47959e-05
0.09069
0.942758
0.992023
0.992101
0.992076
0.899835
0.404137
1.375e-12
5.06842e-09
1.45614e-09
3.60798e-08
6.88863e-08
1.09453e-11
-2.34448e-13
1.38807e-14
1.19342e-12
3.25875e-09
2.03411e-06
0.00862729
0.00963419
4.78495e-05
0.405107
0.975578
0.776468
0.392616
0.575703
9.92447e-09
7.459e-06
1.3031e-06
0.000419533
0.00228704
2.9954e-07
1.64748e-10
9.90332e-14
4.04566e-12
7.03326e-10
1.24029e-06
0.00676229
4.65507e-06
4.68114e-06
1.1742e-05
3.60012e-05
8.84473e-05
0.11695
0.71955
5.91763e-06
0.00899351
0.00675033
0.00733187
0.00735369
0.0032779
3.78183e-07
2.74222e-10
6.9744e-12
1.13779e-09
4.27784e-08
0.00144548
0.000118193
5.49973e-06
0.000415885
0.000415885
0.000229506
0.000175799
0.247757
6.27999e-06
0.00921382
0.00413776
0.000268528
0.000266791
0.00734614
2.56833e-06
2.71135e-09
1.27509e-11
3.54164e-12
8.03574e-10
3.73216e-07
0.00382567
7.85768e-06
4.44995e-05
2.0453e-05
0.000215258
0.00843115
0.413563
5.14576e-08
0.00697663
0.0123917
0.00232674
0.000267769
0.00732708
8.45471e-06
9.22438e-10
1.00868e-11
2.38912e-12
-7.19597e-12
6.87435e-09
0.0038384
8.94357e-05
0.00028768
1.28592e-07
2.35206e-07
0.00349667
0.30518
2.55361e-10
2.24229e-07
0.0119415
0.0122108
0.000224476
9.30338e-05
5.7438e-08
1.02585e-09
1.56501e-11
1.11791e-12
-8.69259e-14
1.10969e-10
0.000498965
0.00324195
0.000403707
5.34471e-08
3.19985e-08
4.40415e-07
2.35124e-05
3.72872e-13
4.50066e-08
9.656e-11
0.00282525
0.0107207
2.04679e-07
1.83398e-07
1.7871e-11
1.37671e-11
1.81627e-12
2.00883e-13
1.76668e-12
2.78813e-08
0.00161059
0.00142313
7.86649e-08
2.07687e-08
5.55607e-08
0.000111434
6.95164e-17
1.42972e-10
3.91322e-10
2.92118e-12
0.000133556
0.00445867
1.33047e-08
7.29571e-11
6.52603e-12
2.99583e-12
2.02866e-13
2.06629e-13
2.32058e-10
8.03715e-08
1.82767e-08
8.51711e-09
1.09194e-08
0.00026186
0.0168073
7.49291e-22
4.795e-13
7.60519e-12
4.4513e-12
6.07391e-13
0.00136282
0.00173389
5.04356e-08
4.79419e-11
8.94136e-13
2.06048e-13
2.07025e-13
2.65758e-12
1.5084e-10
1.14179e-09
6.59182e-08
1.10715e-08
0.00730058
0.125244
7.00194e-22
7.16757e-16
1.16361e-13
1.49051e-12
6.44242e-13
4.89036e-11
0.00217661
0.00249427
6.50813e-07
3.06684e-09
1.83702e-11
1.34567e-12
9.92077e-12
1.24556e-11
1.56642e-08
9.60201e-09
0.000374191
0.0405065
0.213334
3.17761e-19
7.83293e-14
6.58335e-12
6.80006e-12
7.25866e-13
0.000242909
0.00105587
0.00246403
0.000987111
2.35271e-07
1.22003e-09
3.28022e-11
1.67922e-11
2.58674e-08
9.40514e-09
2.5636e-05
0.000643895
0.0269953
0.00348797
9.73585e-17
3.13709e-13
9.55337e-12
6.75266e-12
5.4908e-12
0.000276692
0.0025576
0.00260692
0.000748713
1.61599e-07
9.27187e-10
3.93927e-11
3.60606e-09
1.7885e-08
0.00017048
0.000257153
8.72639e-06
0.000433234
0.00883921
7.55629e-16
2.89732e-13
7.55474e-12
7.98508e-12
9.05635e-05
0.0104863
0.000199295
0.00258656
0.00260376
1.50513e-06
2.08931e-09
1.66394e-10
1.07057e-08
1.00074e-09
0.000441988
0.000441988
6.18371e-06
4.943e-05
0.00024451
1.01883e-15
6.16305e-16
2.32919e-10
3.27188e-09
0.0198293
0.0242558
0.000133332
4.04961e-05
0.00258455
7.5588e-05
8.78759e-09
2.86862e-09
3.43667e-08
7.8976e-10
0.000387367
3.70698e-05
5.1188e-06
0.000496546
0.000245424
4.89211e-16
6.00888e-16
1.92731e-05
0.000333467
0.000827942
0.0238754
0.0230022
3.99397e-05
0.000535984
0.000300241
1.25344e-08
1.00211e-08
3.43831e-08
7.43367e-10
4.61224e-08
8.76333e-08
0.000241249
0.000715363
0.000180683
8.22004e-17
1.3879e-16
4.58366e-11
0.00106237
0.00182785
2.34129e-05
0.0240797
0.00368281
5.63365e-05
0.00162201
7.01908e-08
1.71849e-09
7.18535e-09
7.52234e-10
7.67816e-09
0.000536496
0.000396619
0.000173022
0.00249288
3.07813e-18
-3.856e-16
5.31642e-09
0.00119288
0.00124669
7.31662e-06
0.000790031
0.0105275
5.28127e-05
0.00162201
4.78219e-05
6.29913e-10
6.92012e-10
8.23174e-10
5.01744e-07
0.0153834
0.0327398
0.0238132
0.0365126
4.96112e-18
-2.52942e-14
1.33491e-08
6.04607e-05
8.82849e-07
3.99209e-05
5.67638e-06
5.04542e-07
4.71786e-05
0.00161555
7.35511e-05
6.30047e-10
3.9707e-10
3.24125e-07
0.0108925
0.0328295
0.00971604
0.00301664
0.00276834
7.12609e-17
9.25815e-05
5.59029e-05
3.60694e-07
1.13212e-06
2.04122e-05
5.96649e-07
6.89639e-05
2.61976e-05
0.000451871
0.000503045
5.51001e-10
1.44239e-08
0.00217184
0.0192969
2.8586e-06
5.08068e-09
5.08068e-09
0.00352892
3.10065e-15
0.000109406
1.04586e-05
3.36859e-07
1.21322e-07
1.94624e-07
1.17127e-06
2.2564e-09
1.53729e-05
2.88598e-05
0.00154293
1.81262e-09
6.86251e-07
0.0166316
0.00628048
0.000231394
1.84285e-09
7.9251e-08
0.0012932
3.6261e-09
1.03976e-12
5.79017e-07
4.18212e-07
3.09337e-12
9.17692e-07
2.72024e-08
1.91552e-09
5.11103e-06
5.93267e-06
0.0013406
2.39316e-08
8.20181e-06
0.0272538
0.000207347
3.73146e-06
5.38677e-10
7.82093e-08
2.69878e-08
4.36315e-10
2.23112e-19
7.33922e-07
1.32777e-12
1.36539e-12
4.45277e-14
3.39452e-09
1.75924e-09
0.000100356
5.40858e-06
0.00135638
1.82659e-06
0.00339687
0.00373808
1.74235e-05
1.66535e-17
6.00284e-14
1.73205e-08
2.58316e-08
-7.23605e-23
-4.06726e-22
-5.37904e-24
4.43625e-11
6.40634e-14
1.47385e-17
4.8021e-14
7.43033e-08
9.85852e-05
6.73156e-06
6.71733e-05
8.21852e-06
0.0152487
-1.06098e-21
4.63412e-57
-3.98314e-26
1.40252e-14
-3.30479e-16
0.000874748
1
1
1
1
1
1
1
1
1
1
1
1
1
1
1
1
1
0.916325
0.892219
0.999446
0.974492
0.999408
0.99942
1
1
1
1
1
1
1
1
1
1
1
1
1
1
1
1
1
0.999999
0.960107
0.999987
0.999138
0.849849
0.999646
1
1
1
1
1
1
1
1
1
1
1
1
1
1
1
1
1
1
1
1
0.899176
0.850147
0.999658
1
1
1
1
1
1
1
1
1
1
1
1
1
1
1
1
1
1
1
1
0.995821
0.841082
0.999952
1
1
1
1
1
1
1
1
1
1
1
1
1
1
1
1
1
1
1
1
1
0.998749
0.999997
1
1
1
1
1
1
1
1
1
1
1
1
1
1
1
1
1
1
1
1
1
1
0.999994
1
1
1
1
1
1
1
1
1
1
1
1
1
1
1
1
1
1
1
1
1
1
0.999994
1
1
0.999984
0.999997
1
1
1
1
1
1
1
1
1
1
1
1
1
1
1
1
1
1
0.999999
0.168364
0.587549
0.86769
0.83838
0.877348
0.989912
0.988963
0.351168
0.334998
0.327414
0.304993
0.340398
0.497045
0.468173
0.640067
0.660783
0.662956
0.569338
0.360605
1.21273e-05
2.64489e-06
0.0712482
0.777298
0.990095
0.989969
0.733215
0.208479
0.00496983
0.103413
0.19728
0.146658
0.0553292
0.0105253
9.26708e-05
0.000186559
0.0176355
0.535942
0.615135
1.00926e-05
1.99044e-06
2.23467e-06
0.489276
0.988114
0.499762
0.0742781
0.000696254
0.000143447
0.000373527
0.000264606
0.000230458
0.000190922
0.000126688
9.26708e-05
0.000123207
0.000271192
0.00450515
0.784935
8.69449e-05
2.104e-06
7.14022e-06
0.972566
0.994674
0.15332
0.00243522
0.00033788
0.000376429
0.00155448
0.00155288
0.00150752
0.0013623
0.00140107
0.00144876
0.00101536
0.000158873
0.000825114
0.367867
2.19246e-07
3.96657e-07
0.25958
0.999184
0.460011
0.00140549
0.00037521
0.00011097
0.00145852
0.00154366
8.12483e-05
7.06167e-05
6.78304e-05
6.76134e-05
7.1785e-05
0.00147126
0.000637988
0.000236852
0.686708
1.81715e-09
3.84456e-06
0.996747
0.999586
0.350377
0.000242412
5.76002e-05
2.93532e-05
0.00016996
0.000929841
7.4692e-05
0.000100325
0.000115724
6.76117e-05
6.82399e-05
0.000493218
0.00139522
0.000375782
0.68666
1.38822e-09
0.79695
0.999887
0.999835
0.290996
3.59252e-05
8.85546e-06
9.59332e-06
0.00102888
0.000591692
8.02123e-05
0.000131747
0.000112036
6.76985e-05
6.90991e-05
0.00357451
0.000954403
0.00051643
0.679856
0.161691
0.999814
0.999944
0.993389
0.115202
6.60963e-06
1.27981e-06
1.74113e-06
0.000275704
0.00106556
0.00146115
0.000916431
8.72722e-05
6.80586e-05
9.74506e-05
0.003587
0.0020647
4.08914e-05
0.483455
1
0.968784
0.545892
0.783937
0.996362
0.999967
0.999992
0.999997
0.999999
1
1
1
1
1
1
1
1
1
1
1
1
1
1
0.057215
5.59034e-05
0.013719
1.69428e-08
1.80392e-14
0.0228025
0.0591458
0.10327
0.169822
0.290736
0.497217
0.790518
1
1
1
1
1
1
1
1
1
1
1
3.10242e-10
5.7987e-05
2.40709e-09
4.25256e-12
1.17656e-14
6.79173e-13
9.76888e-14
2.47979e-06
8.546e-05
7.75797e-06
2.06951e-06
2.42725e-06
1.47477e-05
0.0704908
0.413759
0.946071
1
1
1
1
1
1
1
1.7341e-11
2.84169e-10
2.8618e-12
6.07902e-18
-7.13859e-14
-1.90196e-13
8.65423e-14
8.7697e-14
1.25198e-13
0.000103184
4.49069e-09
2.52811e-05
2.45801e-05
2.36104e-05
9.60738e-06
2.62425e-06
0.0405748
0.304986
0.825764
0.99998
1
1
1
-9.304e-16
2.00216e-31
-1.77121e-14
-8.14652e-14
-2.33798e-13
-3.08636e-13
1.32043e-13
2.0229e-12
3.2214e-12
2.46922e-12
6.49093e-08
2.28982e-08
6.72749e-07
1.71838e-08
8.78453e-07
2.02266e-05
1.65883e-06
6.33495e-08
6.57975e-08
6.92734e-08
0.130985
0.575346
0.93078
-2.64086e-16
-1.31615e-15
-9.60421e-15
-4.49286e-14
-1.39305e-13
-1.55122e-13
8.29458e-13
5.72819e-12
2.47099e-12
1.35388e-07
2.18104e-07
5.19358e-09
1.9974e-06
2.50983e-07
1.00937e-07
1.74287e-07
3.30768e-08
4.28066e-07
7.07242e-07
1.058e-07
8.23391e-08
8.62299e-08
1.33957e-07
-4.13806e-17
-3.89912e-16
-3.64281e-15
-1.88711e-14
-5.78304e-14
-4.8938e-14
4.85141e-13
3.63761e-12
4.48602e-12
3.5582e-12
5.89511e-12
9.57759e-09
2.83667e-12
2.83671e-12
1.15134e-08
1.19468e-10
1.05916e-10
2.80832e-08
1.24779e-06
1.14945e-06
2.13817e-10
2.03875e-09
1.01446e-06
-6.46927e-18
-8.43294e-17
-1.07068e-15
-6.18388e-15
-1.77008e-14
-1.29474e-14
4.02725e-14
3.97535e-13
4.53844e-12
5.66765e-12
2.64247e-09
8.70699e-10
1.18455e-11
1.74623e-12
9.9383e-09
1.33099e-08
1.54564e-10
9.95563e-12
3.46326e-12
8.50676e-12
2.70702e-09
2.45152e-10
2.34627e-05
-7.671e-19
-1.41782e-17
-2.57563e-16
-1.56853e-15
-4.1874e-15
-3.19006e-15
1.03212e-15
2.63918e-14
2.59822e-12
4.58651e-12
2.27014e-13
2.92461e-13
1.39101e-12
1.90943e-12
2.87463e-13
2.71007e-13
1.25097e-12
9.80824e-12
1.13782e-11
1.00645e-08
7.92067e-08
3.62115e-09
1.35573e-07
-1.44879e-19
-1.94643e-18
-5.16547e-17
-3.14835e-16
-7.75056e-16
-6.28154e-16
-4.9656e-17
1.25579e-15
3.66246e-14
4.08052e-14
5.07477e-14
9.48527e-14
2.76044e-13
3.16664e-13
1.97552e-13
2.07647e-13
3.49016e-13
7.43652e-13
8.84262e-12