/*--------------------------------*- C++ -*----------------------------------*\
| =========                 |                                                 |
| \\      /  F ield         | OpenFOAM: The Open Source CFD Toolbox           |
|  \\    /   O peration     | Version:  v1912                                 |
|   \\  /    A nd           | Website:  www.openfoam.com                      |
|    \\/     M anipulation  |                                                 |
\*---------------------------------------------------------------------------*/
FoamFile
{
    version     2.0;
    format      ascii;
    class       surfaceScalarField;
    location    "0.55";
    object      alphaPhi0.water;
}
// * * * * * * * * * * * * * * * * * * * * * * * * * * * * * * * * * * * * * //

dimensions      [0 3 -1 0 0 0 0];
oriented        oriented;


internalField   nonuniform List<scalar> 
17936
(
-1.39869e-06
3.22666e-06
-1.82796e-06
2.54226e-06
-2.70631e-06
1.64049e-07
1.94756e-06
-6.19455e-07
-1.3281e-06
-9.99077e-07
2.70163e-06
-1.70255e-06
-4.31357e-06
5.70186e-06
-1.38829e-06
-6.79395e-06
7.57659e-06
-7.82647e-07
-8.07742e-06
8.34375e-06
-2.6633e-07
-8.42596e-06
8.36978e-06
5.61791e-08
-8.2219e-06
8.03231e-06
1.89594e-07
-7.83448e-06
7.64359e-06
1.90889e-07
-7.46394e-06
7.29436e-06
1.69579e-07
-7.13051e-06
6.96567e-06
1.64838e-07
-6.79095e-06
6.59396e-06
1.96989e-07
-6.35741e-06
6.05603e-06
3.01374e-07
-5.65304e-06
5.09452e-06
5.58525e-07
-4.30273e-06
3.17571e-06
1.12702e-06
-1.61993e-06
-3.80185e-07
2.00012e-06
2.68659e-06
-4.41441e-06
1.84439e-06
5.00119e-06
-6.46593e-06
1.40668e-06
7.78467e-06
-5.52148e-06
-2.68937e-06
1.10173e-06
2.71161e-07
-1.39113e-06
5.24416e-06
-1.28464e-05
7.60096e-06
1.36626e-05
-6.99338e-06
-6.67074e-06
-4.98558e-06
6.63418e-06
-1.64859e-06
2.62713e-06
-2.55995e-06
-9.66813e-08
2.9499e-08
1.71687e-06
-4.03303e-07
2.68038e-06
-3.99394e-06
-1.13369e-06
2.76731e-06
3.40047e-06
-5.03409e-06
-4.33337e-06
5.69319e-06
2.78542e-06
-4.14524e-06
-6.76825e-06
7.54769e-06
1.59097e-06
-2.37041e-06
-8.06529e-06
8.37239e-06
5.83875e-07
-8.90976e-07
-8.52073e-06
8.55614e-06
-1.85147e-08
-1.69006e-08
-8.51579e-06
8.42842e-06
-2.86831e-07
3.74197e-07
-8.3143e-06
8.18798e-06
-3.47224e-07
4.73538e-07
-8.05913e-06
7.93274e-06
-3.23002e-07
4.49392e-07
-7.80975e-06
7.68818e-06
-3.00878e-07
4.22441e-07
-7.56388e-06
7.43175e-06
-3.27305e-07
4.59438e-07
-7.2864e-06
7.12315e-06
-4.38933e-07
6.02177e-07
-6.93992e-06
6.74051e-06
-7.26457e-07
9.25867e-07
-6.54072e-06
6.37458e-06
-1.49262e-06
1.65876e-06
-6.25961e-06
6.11244e-06
-3.24487e-06
3.39205e-06
-5.61712e-06
4.14979e-06
-4.79141e-06
6.25874e-06
-1.51213e-06
-1.52555e-06
-3.88061e-06
7.14015e-06
4.07096e-06
-6.07295e-06
3.83854e-06
-1.88576e-06
7.10328e-06
-9.44639e-06
-3.46995e-07
2.69056e-06
1.31606e-05
-1.30072e-05
-1.17694e-05
1.17795e-05
1.11884e-05
-7.39054e-06
1.28464e-05
-1.80012e-05
-8.17982e-06
9.61277e-06
-1.43295e-06
2.35277e-06
-2.22111e-06
5.40864e-08
-1.8574e-07
1.41691e-06
-3.63977e-07
5.2253e-06
-6.27823e-06
-8.6593e-07
2.31457e-06
6.57324e-06
-8.02189e-06
-3.79422e-06
5.1001e-06
5.46831e-06
-6.77419e-06
-6.12695e-06
6.86728e-06
3.12723e-06
-3.86756e-06
-7.36422e-06
7.67521e-06
1.19539e-06
-1.50637e-06
-7.85367e-06
7.94214e-06
7.27178e-08
-1.61192e-07
-7.97234e-06
7.96642e-06
-4.27927e-07
4.33849e-07
-7.93908e-06
7.8993e-06
-5.6181e-07
6.01584e-07
-7.85164e-06
7.79722e-06
-5.42997e-07
5.97419e-07
-7.73469e-06
7.66137e-06
-5.2184e-07
5.95159e-07
-7.57413e-06
7.46975e-06
-5.7938e-07
6.83752e-07
-7.34542e-06
7.19855e-06
-7.61332e-07
9.08202e-07
-7.02721e-06
6.83098e-06
-1.14056e-06
1.33679e-06
-6.61289e-06
6.38348e-06
-1.89522e-06
2.12463e-06
-6.17142e-06
6.05299e-06
-3.3914e-06
3.50984e-06
-6.18106e-06
6.62435e-06
-6.22598e-06
5.78269e-06
-7.15515e-06
7.17616e-06
-8.77696e-06
8.75594e-06
-5.7235e-06
2.01806e-06
-2.18909e-06
5.89453e-06
2.93818e-06
-5.27864e-06
-4.78008e-06
7.20417e-06
4.30946e-06
-3.325e-06
-1.15622e-05
1.05754e-05
2.67061e-06
-2.73858e-06
2.16644e-05
-2.10589e-05
-1.09085e-05
1.20278e-05
-1.11935e-06
1.9974e-06
-1.88153e-06
3.49748e-07
-4.65618e-07
1.66544e-06
-1.46832e-06
6.97981e-06
-7.17693e-06
6.81909e-07
8.04877e-07
9.44676e-06
-1.09335e-05
-2.60982e-06
4.14124e-06
8.1332e-06
-9.66462e-06
-5.2239e-06
5.94353e-06
4.59504e-06
-5.31467e-06
-6.42802e-06
6.76394e-06
1.82996e-06
-2.16588e-06
-7.00371e-06
7.18204e-06
2.91652e-07
-4.69978e-07
-7.32153e-06
7.43485e-06
-3.82788e-07
2.69466e-07
-7.52791e-06
7.60214e-06
-5.85858e-07
5.11624e-07
-7.65643e-06
7.68844e-06
-6.08799e-07
5.7679e-07
-7.69541e-06
7.67512e-06
-6.4118e-07
6.61468e-07
-7.62667e-06
7.55046e-06
-7.72993e-07
8.49201e-07
-7.44814e-06
7.32207e-06
-1.0437e-06
1.16978e-06
-7.17559e-06
7.01366e-06
-1.51428e-06
1.67621e-06
-6.84416e-06
6.67976e-06
-2.31859e-06
2.48299e-06
-6.53896e-06
6.44461e-06
-3.64224e-06
3.73659e-06
-6.42174e-06
6.52662e-06
-5.52268e-06
5.4178e-06
-6.89311e-06
7.62372e-06
-7.94894e-06
7.21833e-06
-8.16251e-06
7.60078e-06
-8.02987e-06
8.5916e-06
-5.34133e-06
3.42329e-06
-9.6444e-06
1.15624e-05
-4.43524e-06
4.84856e-06
-9.02502e-06
8.6093e-06
-3.81318e-06
2.0443e-06
1.89774e-05
-1.78785e-05
-1.29136e-05
1.34885e-05
-5.74993e-07
1.47079e-06
-1.76177e-06
4.10138e-07
-1.19165e-07
2.49698e-06
-3.05084e-06
6.88434e-06
-6.33048e-06
2.63548e-06
-1.08736e-06
1.25313e-05
-1.40794e-05
-1.12059e-06
3.11955e-06
1.14606e-05
-1.34595e-05
-4.43419e-06
5.17474e-06
6.03846e-06
-6.77901e-06
-5.62047e-06
5.95506e-06
2.50654e-06
-2.84112e-06
-6.25018e-06
6.52524e-06
6.98161e-07
-9.73219e-07
-6.78337e-06
7.02236e-06
-9.22213e-08
-1.46775e-07
-7.23681e-06
7.42099e-06
-3.80032e-07
1.95853e-07
-7.56878e-06
7.67557e-06
-5.04468e-07
3.97674e-07
-7.7385e-06
7.7571e-06
-6.59713e-07
6.41107e-07
-7.73365e-06
7.67306e-06
-9.15723e-07
9.76313e-07
-7.58176e-06
7.46671e-06
-1.28906e-06
1.4041e-06
-7.33536e-06
7.19591e-06
-1.82554e-06
1.96499e-06
-7.05815e-06
6.9346e-06
-2.62463e-06
2.74817e-06
-6.84148e-06
6.79806e-06
-3.79989e-06
3.8433e-06
-6.82307e-06
6.92477e-06
-5.33291e-06
5.23121e-06
-7.08354e-06
7.3062e-06
-6.81647e-06
6.59382e-06
-7.62797e-06
8.08567e-06
-8.28745e-06
7.82975e-06
-8.77824e-06
9.41123e-06
-1.22835e-05
1.16505e-05
-1.03836e-05
1.05931e-05
-8.87616e-06
8.6815e-06
-8.73348e-06
4.94895e-06
1.53241e-05
-1.15396e-05
-1.36594e-05
1.32486e-05
4.1083e-07
4.10834e-07
-8.30623e-07
-3.26546e-07
7.46335e-07
1.33427e-06
-1.24626e-06
5.89189e-06
-5.9799e-06
4.36784e-07
6.81842e-07
1.54429e-05
-1.65616e-05
-1.87299e-06
3.10799e-06
1.5337e-05
-1.6572e-05
-4.0996e-06
4.73906e-06
7.51744e-06
-8.1569e-06
-5.1489e-06
5.47752e-06
3.16631e-06
-3.49493e-06
-5.80605e-06
6.15342e-06
1.28715e-06
-1.63451e-06
-6.50734e-06
6.84755e-06
4.40919e-07
-7.81134e-07
-7.15612e-06
7.41979e-06
3.2895e-08
-2.96572e-07
-7.63e-06
7.78085e-06
-2.6432e-07
1.13465e-07
-7.87127e-06
7.90275e-06
-6.1205e-07
5.80569e-07
-7.88207e-06
7.81924e-06
-1.03492e-06
1.09775e-06
-7.72589e-06
7.61275e-06
-1.51673e-06
1.62987e-06
-7.48968e-06
7.36589e-06
-2.09627e-06
2.22006e-06
-7.2505e-06
7.15419e-06
-2.85718e-06
2.95348e-06
-7.09041e-06
7.0733e-06
-3.87214e-06
3.88926e-06
-7.11495e-06
7.22355e-06
-5.12258e-06
5.01398e-06
-7.39952e-06
7.61848e-06
-6.39438e-06
6.17542e-06
-7.84682e-06
8.10512e-06
-7.49853e-06
7.24023e-06
-8.74146e-06
1.00756e-05
-1.02843e-05
8.95019e-06
-1.17013e-05
1.2161e-05
-8.47563e-06
8.01593e-06
-1.04235e-05
6.14622e-06
7.3052e-06
-3.02794e-06
-1.20917e-05
1.01131e-05
1.9786e-06
-1.66433e-06
1.99319e-06
-9.20971e-07
5.92105e-07
-2.92052e-06
4.81857e-06
6.93939e-06
-8.83744e-06
-6.82091e-06
7.51672e-06
1.74879e-05
-1.81837e-05
-6.66784e-06
5.4239e-06
1.66835e-05
-1.54396e-05
-4.74812e-06
4.66742e-06
8.51794e-06
-8.43723e-06
-4.88679e-06
5.22567e-06
3.84091e-06
-4.17979e-06
-5.62481e-06
6.05962e-06
2.02275e-06
-2.45756e-06
-6.50232e-06
6.92323e-06
1.1623e-06
-1.58321e-06
-7.29887e-06
7.61446e-06
5.87691e-07
-9.03282e-07
-7.86189e-06
8.03709e-06
4.88011e-08
-2.23999e-07
-8.13738e-06
8.16451e-06
-5.53546e-07
5.26411e-07
-8.1271e-06
8.03931e-06
-1.17359e-06
1.26137e-06
-7.9183e-06
7.77997e-06
-1.75175e-06
1.89008e-06
-7.63989e-06
7.51168e-06
-2.3403e-06
2.46851e-06
-7.40454e-06
7.3261e-06
-3.03789e-06
3.11634e-06
-7.2855e-06
7.29043e-06
-3.89553e-06
3.8906e-06
-7.34602e-06
7.45689e-06
-4.90526e-06
4.79439e-06
-7.62606e-06
7.85257e-06
-5.94752e-06
5.72101e-06
-8.13455e-06
8.4621e-06
-6.95707e-06
6.62953e-06
-8.85512e-06
9.45137e-06
-8.01142e-06
7.41517e-06
-1.03194e-05
1.07208e-05
-7.46311e-06
7.06167e-06
-9.56245e-06
6.09927e-06
-9.41563e-07
4.40474e-06
-7.32305e-06
3.89245e-06
3.43059e-06
-5.06279e-06
7.03305e-06
4.23907e-07
-2.39417e-06
-1.03243e-05
1.43391e-05
1.18463e-05
-1.58611e-05
-1.62254e-05
1.44659e-05
1.81292e-05
-1.63693e-05
-1.07892e-05
7.70479e-06
1.29647e-05
-9.88029e-06
-6.05402e-06
5.44245e-06
7.9416e-06
-7.33004e-06
-5.34904e-06
5.52009e-06
4.44485e-06
-4.6159e-06
-5.84916e-06
6.26644e-06
2.90776e-06
-3.32504e-06
-6.70762e-06
7.12108e-06
2.02515e-06
-2.43862e-06
-7.47619e-06
7.76065e-06
1.22926e-06
-1.51372e-06
-7.97303e-06
8.11837e-06
4.10678e-07
-5.5602e-07
-8.20691e-06
8.23306e-06
-4.85312e-07
4.5916e-07
-8.20873e-06
8.15256e-06
-1.33746e-06
1.39363e-06
-8.07423e-06
7.97629e-06
-2.02848e-06
2.12642e-06
-7.86253e-06
7.74106e-06
-2.61007e-06
2.73154e-06
-7.61898e-06
7.51363e-06
-3.20492e-06
3.31026e-06
-7.45221e-06
7.4509e-06
-3.87953e-06
3.88083e-06
-7.51036e-06
7.62824e-06
-4.67865e-06
4.56077e-06
-7.80206e-06
8.02805e-06
-5.49674e-06
5.27074e-06
-8.30776e-06
8.65197e-06
-6.2833e-06
5.93909e-06
-9.06132e-06
9.47503e-06
-6.97285e-06
6.55915e-06
-9.8092e-06
9.8303e-06
-6.90263e-06
6.88153e-06
-8.97289e-06
6.73636e-06
-7.37831e-06
9.61484e-06
-1.0561e-06
9.18925e-07
-2.04642e-06
2.01285e-05
-2.55398e-05
-1.82898e-08
2.26018e-05
-2.11313e-05
-2.32712e-06
1.73008e-05
-1.23898e-05
-5.42035e-06
5.30656e-06
8.9221e-06
-1.55908e-05
-2.71027e-05
4.65715e-05
-1.8269e-05
-6.50256e-05
7.98299e-05
-1.48371e-05
-7.4704e-05
1.79028e-05
2.16919e-05
8.62624e-06
-2.22375e-05
6.80098e-06
2.65778e-05
-2.65964e-05
1.2255e-07
2.57672e-05
-2.24742e-05
-6.133e-07
2.61116e-05
-2.39208e-05
4.44337e-08
2.77566e-05
-4.03255e-05
6.11065e-07
4.28486e-05
-4.67926e-05
4.14802e-06
4.03157e-05
-5.3819e-05
9.32042e-07
7.01613e-05
-6.66708e-05
-3.09901e-06
6.11943e-05
-5.37952e-05
-7.28573e-06
4.5197e-05
-2.88789e-05
-1.62554e-05
1.04989e-05
5.25365e-06
-1.72079e-05
2.17544e-08
1.81085e-08
-6.58152e-09
3.90866e-09
-4.63901e-09
1.54583e-09
-6.38331e-10
2.38106e-08
-1.82408e-07
1.68519e-07
-8.98742e-09
4.93478e-06
-2.81253e-06
7.75469e-06
-2.93403e-06
-5.43072e-06
2.33389e-05
3.15589e-05
-4.79849e-05
-4.01599e-05
5.48086e-05
3.35041e-05
-4.81277e-05
-6.62406e-05
5.90167e-05
2.69109e-05
-2.71443e-05
-3.03985e-05
-1.70921e-05
-5.52191e-05
5.84949e-05
9.0187e-06
-2.14759e-06
-7.44551e-06
1.7791e-06
2.43205e-06
-8.68408e-06
3.48436e-07
-1.47728e-09
2.11452e-05
-2.92562e-05
2.06834e-07
-3.02948e-08
3.06884e-05
-2.76647e-05
-1.89844e-07
-2.4221e-08
2.03686e-05
-1.25195e-05
-1.32825e-06
2.74216e-08
7.21051e-06
-3.10797e-06
-1.63531e-06
6.99112e-08
6.0848e-07
-2.30425e-08
-8.02283e-09
2.58764e-09
7.58402e-08
-2.70292e-07
1.95361e-07
-7.31773e-09
1.06571e-06
-3.78118e-06
2.83201e-06
-1.64457e-07
7.08085e-06
-2.4594e-05
2.29749e-05
-4.83159e-06
3.10172e-05
-9.06512e-06
4.15751e-05
-6.13783e-05
-1.99442e-08
1.14539e-08
6.40731e-09
2.59931e-10
-1.77332e-11
1.25515e-09
-4.2077e-10
2.17829e-11
-1.64431e-10
1.93141e-10
-6.79481e-11
3.4136e-09
4.4832e-07
1.44205e-07
-5.96855e-07
-2.22625e-05
3.48021e-05
6.4759e-05
-7.72828e-05
-4.57339e-05
4.66222e-05
6.06101e-05
-6.14927e-05
-4.37289e-06
-8.38419e-06
2.06926e-06
3.98742e-06
8.45891e-06
-2.58096e-06
-1.21016e-05
5.33016e-06
3.99027e-07
-8.38991e-08
-5.56741e-07
2.24343e-07
6.35518e-08
-8.88658e-08
-9.22073e-10
2.0145e-08
1.01209e-07
-7.63859e-08
8.67225e-09
-3.42856e-08
6.53424e-08
-6.11063e-08
5.11847e-09
-1.61609e-08
5.52394e-08
-4.80851e-08
2.99893e-09
-1.69752e-08
3.74138e-08
-2.71166e-08
1.59102e-09
-1.39936e-08
1.57863e-08
-1.21569e-08
4.11803e-09
-8.97277e-09
1.0976e-08
-1.1444e-08
3.63924e-09
-9.58075e-09
2.29025e-08
-5.23527e-08
2.35386e-08
-2.56912e-09
1.86125e-07
-1.03627e-06
1.29568e-06
-5.08975e-07
5.29224e-06
-2.34399e-05
7.07955e-05
-5.38355e-05
-2.94259e-09
4.5587e-10
1.52985e-09
-1.11178e-09
4.56879e-11
5.15556e-10
-2.33566e-10
-8.55796e-11
3.78589e-09
2.32172e-10
-3.97615e-09
-6.74637e-07
2.33921e-05
6.24298e-06
-2.31908e-05
-3.3378e-05
3.79386e-05
8.36862e-05
-8.85199e-05
-3.29902e-05
-2.59696e-06
3.45908e-05
-3.13506e-06
4.36827e-06
-2.27085e-06
-3.16106e-06
1.26457e-06
1.69032e-06
-4.7793e-07
-2.03493e-06
7.28402e-07
9.91456e-08
-1.03612e-07
-1.16727e-07
6.89426e-08
2.05858e-07
-2.8202e-07
-4.60666e-08
3.19135e-08
2.69882e-07
-2.66934e-07
4.98927e-08
-5.01579e-08
2.65651e-07
-2.5835e-07
2.75289e-08
-3.1219e-08
2.3757e-07
-1.99755e-07
3.10954e-08
-5.62967e-08
1.58961e-07
-1.28014e-07
4.46806e-08
-6.36845e-08
1.00607e-07
-7.52668e-08
7.40111e-08
-8.93486e-08
4.78459e-08
-1.20664e-08
6.77339e-08
-9.19563e-08
-1.53289e-08
9.21472e-09
-1.82791e-09
-5.47138e-09
5.46492e-09
-1.66856e-07
1.45088e-07
3.08473e-09
1.19949e-06
-1.08403e-05
3.34195e-05
-2.45015e-05
-4.17388e-11
4.80138e-12
2.78146e-11
-9.27023e-11
6.26784e-11
2.14412e-11
-9.1007e-12
-1.08537e-08
7.54573e-07
6.21624e-08
-8.05956e-07
-1.8522e-05
3.34437e-05
5.01017e-05
-6.54774e-05
-3.52471e-05
3.27437e-05
9.06052e-05
-8.82484e-05
-9.58129e-07
-3.24633e-06
-7.92148e-06
7.68351e-06
6.79345e-07
-2.99426e-07
-6.13821e-07
2.51765e-07
2.10561e-07
-6.29418e-08
-2.6965e-07
9.22861e-08
3.57448e-08
-7.76897e-08
-5.41085e-08
3.37526e-08
2.11001e-07
-2.21393e-07
-3.22524e-08
4.15998e-08
2.33613e-07
-3.97807e-08
3.49281e-08
-8.10094e-10
1.5852e-08
-1.64052e-08
1.43181e-09
-1.00126e-09
1.51763e-08
-1.26728e-08
1.10956e-08
-1.35533e-08
1.02055e-08
-8.2232e-09
7.93916e-09
-9.94885e-09
6.97151e-09
-9.38561e-09
1.22485e-08
-9.91976e-09
3.00173e-08
-1.72871e-08
1.14185e-07
-4.64917e-08
-2.34714e-08
7.3761e-08
6.41008e-08
-1.03628e-07
-4.6543e-08
3.09538e-08
-1.82716e-08
2.97231e-08
4.95226e-07
-1.10248e-05
2.62189e-05
-1.74655e-05
-3.01768e-13
7.20663e-14
1.88721e-13
-9.19823e-12
4.19566e-09
5.56768e-11
-4.24309e-09
-2.09641e-06
2.39937e-05
5.61308e-06
-3.29795e-05
-3.31777e-05
3.53977e-05
6.95923e-05
-7.18123e-05
-3.55887e-05
2.0049e-05
8.01911e-05
-7.15733e-05
1.7731e-06
-7.40926e-07
-4.87527e-06
3.09437e-06
9.6937e-08
-3.47465e-08
-9.45904e-08
3.33392e-08
2.21392e-08
-7.65607e-09
-2.95738e-08
9.43699e-09
7.18977e-09
-9.28506e-09
-1.81284e-08
1.21376e-08
7.70783e-08
-1.64556e-07
-5.22162e-08
2.67503e-08
2.01513e-08
-1.60544e-08
-3.45801e-09
4.31658e-09
1.6086e-08
-1.52372e-08
1.77673e-09
-2.40637e-09
2.60502e-08
-1.54389e-08
2.31196e-08
-2.87181e-08
7.65767e-09
-5.3199e-09
1.1892e-08
-1.43158e-08
3.92365e-09
-3.44716e-09
1.07471e-08
-1.13097e-08
4.82011e-09
-2.22121e-09
4.07031e-08
-4.40975e-08
-2.95729e-08
4.19785e-08
1.33684e-07
5.10657e-09
-9.29136e-08
7.16068e-08
-4.14312e-08
4.93518e-08
-3.68876e-08
-5.60416e-06
7.8492e-06
-2.3098e-06
-5.33923e-14
3.01992e-14
2.2876e-14
-1.67093e-14
3.33286e-06
2.0771e-07
-3.52139e-06
-2.69663e-05
3.2841e-05
5.1629e-05
-5.75005e-05
-3.51944e-05
3.57952e-05
7.30645e-05
-7.36644e-05
-3.50155e-05
1.61454e-05
6.34423e-05
-5.34804e-05
2.4797e-07
-9.95316e-08
-3.04253e-06
2.85789e-06
1.02183e-08
-3.36196e-09
-1.29117e-08
5.67075e-09
1.76858e-09
-8.11004e-10
-3.50398e-09
1.73975e-09
1.46076e-09
-3.7191e-08
-1.4021e-08
2.35656e-08
9.06368e-08
-8.43097e-08
-8.89651e-08
1.16443e-07
1.51409e-08
-1.50314e-08
-5.44764e-09
8.43678e-09
1.82236e-08
-2.00089e-08
2.46684e-09
-1.53073e-09
1.96996e-08
-1.64733e-08
2.94601e-08
-2.64079e-08
7.68755e-09
-2.90948e-09
1.68868e-08
-1.44035e-08
1.44065e-09
-4.18055e-10
1.21262e-08
-1.32922e-08
-9.81684e-09
1.00882e-07
2.99511e-07
-6.86463e-07
-1.5919e-07
5.18737e-08
3.59543e-08
-5.68751e-07
3.62263e-09
1.495e-08
-5.53043e-08
1.39499e-08
-6.32513e-08
4.24637e-08
2.53721e-08
-5.17472e-09
-8.03184e-06
-6.92349e-15
7.72006e-06
-1.01728e-05
2.90756e-05
1.92749e-05
-3.54728e-05
-3.26029e-05
3.40183e-05
6.05263e-05
-6.19419e-05
-3.40807e-05
3.4256e-05
7.39365e-05
-7.4112e-05
-2.69582e-05
1.58556e-06
3.63629e-05
-1.38412e-05
8.04173e-07
-1.64754e-08
-2.63151e-06
1.54874e-06
1.15951e-09
-2.84216e-10
-2.21405e-09
1.27859e-09
1.12748e-10
-4.44166e-11
-4.34397e-10
2.90464e-10
-2.0313e-10
-2.9517e-09
-1.63426e-08
4.48247e-09
1.14401e-08
-2.53847e-09
-1.46753e-07
1.05172e-08
1.01497e-07
-1.10863e-07
-8.26774e-08
9.43553e-08
9.41305e-08
-6.32158e-08
7.39846e-08
-1.04204e-07
1.46451e-08
-7.25949e-09
3.15381e-08
-4.03509e-08
2.94278e-09
-5.54873e-10
1.71605e-08
-1.91465e-08
-6.67355e-10
4.86211e-09
1.51384e-08
-1.94065e-08
-5.62036e-08
1.64848e-07
8.05617e-07
-9.01696e-07
-1.72313e-07
1.82905e-07
5.92528e-07
-6.00421e-07
-1.01387e-08
-7.14721e-10
-5.45411e-09
4.71798e-09
-5.68924e-09
5.12593e-09
3.47895e-10
1.59784e-10
3.97574e-06
-7.88632e-06
8.29296e-06
-1.80552e-05
2.75064e-05
5.63543e-06
-1.50267e-05
-3.19079e-05
2.31929e-05
1.97145e-05
-7.04589e-06
-1.37583e-05
1.1218e-05
1.16906e-05
-1.87977e-06
-1.21573e-05
1.26972e-05
7.43163e-06
-6.30933e-06
-1.27291e-05
1.29921e-05
6.98233e-06
-7.01106e-06
-1.37988e-05
1.50446e-05
4.82282e-06
-6.06855e-06
-1.64727e-05
1.78681e-05
3.73765e-06
-5.13294e-06
-1.9095e-05
2.00826e-05
2.78947e-06
-3.77705e-06
-2.07891e-05
2.11869e-05
1.69324e-06
-2.09102e-06
-2.12578e-05
2.10226e-05
5.61252e-07
-3.26004e-07
-2.05222e-05
1.97628e-05
-5.55054e-07
1.31441e-06
-1.88602e-05
1.79818e-05
-1.5084e-06
2.38685e-06
-1.72697e-05
1.67464e-05
-2.19862e-06
2.72191e-06
-1.64489e-05
1.63737e-05
-2.78712e-06
2.86233e-06
-1.63932e-05
1.64245e-05
-3.39406e-06
3.36275e-06
-1.64727e-05
1.65235e-05
-3.90486e-06
3.85407e-06
-1.65771e-05
1.67027e-05
-4.46021e-06
4.33462e-06
-1.69615e-05
1.73694e-05
-5.04256e-06
4.63464e-06
-1.79351e-05
1.86621e-05
-5.59731e-06
4.87036e-06
-1.95404e-05
2.05211e-05
-6.13292e-06
5.15229e-06
-2.15466e-05
2.25078e-05
-6.83316e-06
5.87188e-06
-2.40079e-05
2.77226e-05
-1.16892e-05
7.97451e-06
1.43159e-14
-1.99134e-14
9.46194e-17
-9.90606e-07
-7.2039e-10
9.91761e-07
-7.88898e-10
1.23646e-07
-3.65515e-07
1.17927e-07
-5.63348e-09
1.41165e-07
-4.45339e-11
1.02002e-06
-8.76215e-13
1.71065e-09
-3.6081e-08
3.43689e-08
8.38163e-12
4.89675e-07
-8.71419e-07
1.74437e-06
-2.81177e-16
1.58427e-06
-2.21571e-06
2.68421e-06
-7.00708e-14
2.67908e-06
-2.9268e-06
3.22329e-06
-1.2875e-11
2.94728e-06
-2.72777e-06
3.23273e-06
-1.49418e-09
2.22001e-06
-1.31118e-06
2.59433e-06
-5.96598e-10
-6.56759e-08
2.46824e-06
9.25112e-07
-4.6198e-08
-6.31643e-06
1.18825e-05
-1.51524e-06
-1.00341e-06
-1.69277e-05
1.98492e-05
-3.30709e-06
1.05188e-06
-2.07307e-05
1.98817e-05
-4.1628e-06
5.01178e-06
-1.88018e-05
1.79375e-05
-3.81366e-06
4.67793e-06
-1.67955e-05
1.57187e-05
-3.55483e-06
4.63169e-06
-1.51576e-05
1.50408e-05
-3.37538e-06
3.49226e-06
-1.53546e-05
1.61318e-05
-3.91006e-06
3.13289e-06
-1.70296e-05
1.77973e-05
-4.3185e-06
3.5508e-06
-1.84772e-05
1.91824e-05
-4.27475e-06
3.56955e-06
-1.99911e-05
2.09871e-05
-4.07806e-06
3.08204e-06
-2.22454e-05
2.38475e-05
-4.06974e-06
2.46763e-06
-2.59143e-05
2.85467e-05
-3.98785e-06
1.35539e-06
1.80294e-15
-3.65327e-18
-1.82441e-15
1.0313e-12
-2.7414e-10
1.44406e-11
1.11586e-11
8.00564e-10
-2.37254e-13
6.6207e-10
-1.91519e-11
1.51486e-13
-7.71834e-15
4.47221e-15
-2.39889e-21
1.47914e-14
-3.17247e-20
-1.48978e-14
1.02276e-16
4.64316e-19
-2.47026e-18
4.65259e-19
2.30573e-19
-1.72061e-18
-1.79173e-15
1.82898e-15
-1.71212e-17
8.21552e-14
-2.98544e-12
2.91995e-12
-1.69663e-14
3.54675e-10
-2.09736e-09
1.44333e-09
-7.73117e-10
2.71039e-09
-7.88261e-10
4.373e-10
-1.60812e-09
6.8797e-11
-7.31135e-11
2.96558e-11
-3.05933e-11
1.04263e-10
-2.00495e-10
1.03537e-09
-9.45109e-10
1.82246e-09
-3.29278e-08
3.16985e-08
-6.21689e-10
1.99796e-07
-5.32669e-07
-1.31027e-07
-1.36121e-09
4.09854e-07
1.50974e-06
-1.99958e-06
-2.72294e-07
-6.71266e-06
1.22385e-05
-6.31259e-06
6.41846e-07
-1.61429e-05
1.64439e-05
-4.46762e-06
4.16666e-06
-1.50116e-05
1.38966e-05
-2.60513e-06
3.72008e-06
-1.28684e-05
1.24963e-05
-2.59831e-06
2.97043e-06
-1.3366e-05
1.51246e-05
-2.28881e-06
5.30246e-07
-1.72547e-05
1.94274e-05
-1.84684e-06
-3.25868e-07
-2.13428e-05
2.29439e-05
-1.10128e-06
-4.99747e-07
-2.4466e-05
2.60488e-05
9.41911e-07
-2.52465e-06
-3.57349e-20
-4.12159e-20
-1.39026e-20
1.25817e-14
-1.65804e-13
-1.58828e-12
-1.13864e-15
-2.14674e-13
6.42313e-15
9.4161e-15
1.47015e-16
-2.07652e-22
-6.0599e-20
-3.00029e-23
-5.02916e-22
-1.37238e-20
5.96961e-19
-1.17468e-18
5.91442e-19
4.35317e-19
-1.98178e-18
-1.85557e-19
-3.25318e-19
2.03137e-18
-2.60484e-19
-4.74099e-20
5.12538e-19
-1.00749e-18
9.62289e-19
2.5443e-18
-5.93728e-19
-1.06048e-18
9.41188e-19
5.45676e-17
-5.25566e-17
-2.34732e-18
-4.95307e-10
9.05017e-10
-1.74923e-17
6.0283e-10
-9.15819e-11
2.63006e-10
-1.04042e-11
9.72498e-11
-2.6928e-10
4.38702e-10
-6.89292e-14
2.37972e-10
-2.39851e-10
4.24637e-10
-7.10662e-12
2.10697e-10
-2.74924e-10
5.30905e-10
-5.72061e-11
1.48698e-10
-1.6311e-10
1.12903e-10
-1.74332e-10
2.6779e-10
-4.03866e-09
3.7559e-09
-8.70151e-12
8.366e-08
-2.92341e-07
1.27975e-07
-4.34585e-10
4.72954e-07
8.3991e-08
2.61888e-08
-2.73189e-07
-4.01362e-06
9.23703e-06
-4.0193e-06
-5.18734e-08
-1.5069e-05
1.62758e-05
-7.54955e-07
1.17491e-07
-1.58964e-05
1.58696e-05
1.88554e-06
-1.85865e-06
-1.56898e-05
1.5927e-05
2.30416e-06
-2.54129e-06
-1.6913e-05
1.80072e-05
3.93486e-06
-5.02904e-06
1.33419e-19
-2.29426e-19
1.3183e-21
1.79447e-20
-1.09021e-18
2.5466e-19
2.7001e-21
2.07721e-21
2.46042e-22
-1.11011e-18
9.39868e-22
-1.38775e-20
1.04346e-20
3.42834e-20
-2.02999e-20
4.42975e-20
-2.173e-19
1.81866e-19
-4.60936e-20
5.89338e-19
-1.05589e-18
4.31946e-21
2.07733e-19
1.21066e-18
-5.34681e-19
-3.54358e-19
1.39204e-19
-1.39226e-18
6.20866e-18
3.26317e-18
-1.17998e-17
-7.14222e-18
8.76092e-18
2.87629e-17
-3.01834e-17
-9.63356e-18
1.02094e-17
1.0274e-17
-1.32468e-17
-3.34277e-16
5.98667e-14
1.33697e-13
-5.60562e-13
-3.4574e-14
7.59434e-15
1.52571e-13
-4.38666e-13
1.35574e-12
-3.22764e-12
6.51027e-12
-1.44007e-11
6.57015e-13
-1.39133e-13
1.1617e-11
-1.21082e-11
2.1022e-13
-6.94499e-12
6.83936e-12
-1.09656e-13
8.31396e-11
3.51923e-11
-4.05616e-11
-1.00821e-12
-4.81839e-11
3.0124e-11
6.46711e-11
-9.28743e-13
5.0956e-13
-9.55414e-13
6.45803e-13
-3.34688e-13
1.95325e-12
-2.40979e-11
2.24276e-11
-3.97453e-13
7.05182e-10
-1.8467e-08
1.7764e-08
-2.29461e-12
3.69183e-07
-6.94183e-07
2.29953e-06
-6.37862e-11
-1.81507e-07
4.62289e-06
2.22628e-06
-5.75806e-08
-1.35118e-05
1.98782e-05
4.82726e-06
-3.43745e-06
3.15247e-19
-3.70477e-19
2.54481e-22
-1.17124e-21
2.72197e-21
-1.92635e-21
1.18058e-21
-4.68944e-21
6.77776e-21
9.17863e-22
8.78885e-22
-1.15832e-20
4.17979e-21
1.83657e-21
5.4305e-21
1.70827e-20
-7.87395e-20
-3.83789e-20
5.82599e-20
2.05416e-19
-3.48961e-19
-2.62219e-19
2.21746e-19
3.44284e-19
-3.18132e-21
-4.12881e-21
-1.71838e-19
-3.38033e-18
1.02842e-17
1.80286e-17
-1.69134e-17
-9.62504e-18
5.77255e-18
3.77017e-17
-3.33862e-17
-2.15713e-18
4.85846e-15
4.34734e-17
-4.90206e-15
-2.09795e-13
2.43146e-13
1.10813e-12
-1.06717e-12
-9.6321e-14
1.19754e-14
4.69179e-13
-1.38138e-13
1.76774e-14
-1.23579e-12
9.3103e-12
-3.29002e-13
4.05337e-12
-3.71816e-12
1.35057e-11
-7.98419e-12
2.53617e-13
-2.61526e-13
1.14638e-13
-1.11923e-13
1.76213e-13
-1.37217e-13
1.02286e-12
-9.18538e-13
4.21915e-14
-1.93812e-13
1.00674e-12
-4.0678e-13
-2.95742e-14
6.85635e-13
6.8909e-14
-2.90888e-17
-2.63553e-12
5.39093e-12
3.97747e-13
-5.95829e-12
-6.0913e-12
2.81939e-12
2.25383e-12
-1.03254e-11
-1.19723e-12
8.29156e-13
8.85091e-13
-1.66486e-14
-2.37949e-13
-9.17389e-13
3.27974e-12
-1.69599e-12
1.30323e-11
-4.74413e-10
4.64763e-10
-2.82216e-12
3.65443e-19
-2.89838e-19
4.22835e-23
-3.40146e-22
1.00029e-21
-6.46671e-22
3.20725e-22
-2.32901e-21
4.58216e-21
-1.19228e-21
9.88831e-22
-7.90554e-21
9.73338e-21
-7.02752e-21
5.99493e-21
-6.05929e-21
-6.21951e-21
-5.23377e-20
3.78342e-20
2.74637e-20
-4.99035e-20
-1.54421e-19
9.48213e-20
4.24822e-20
9.6326e-20
1.50091e-19
-2.78352e-20
-7.0705e-19
1.78098e-18
1.04765e-17
-4.45598e-18
-1.8394e-18
4.65991e-19
2.7182e-17
-1.18344e-17
8.61482e-19
-1.65515e-18
2.03999e-17
-2.64996e-17
4.5495e-18
-3.57315e-17
6.33089e-15
-6.30666e-15
6.01953e-15
-1.15127e-14
7.94979e-14
-6.00518e-14
2.84316e-15
-4.94937e-18
2.75643e-14
-1.8549e-14
5.05014e-18
-1.01627e-16
1.64763e-16
-8.28602e-17
2.56587e-14
-1.42429e-14
1.14702e-13
-1.38776e-13
7.66705e-14
-8.21251e-16
3.1319e-13
-1.08265e-13
3.60098e-17
4.48224e-17
2.64748e-14
-2.78526e-14
-2.20243e-16
2.43457e-16
4.26655e-17
-5.29071e-17
-1.10815e-12
9.34294e-12
6.43854e-12
-8.00791e-17
-1.35379e-11
9.45406e-12
1.0495e-11
-6.28114e-12
-5.50491e-12
1.36927e-12
1.53773e-12
-5.20674e-14
-6.37165e-14
2.69369e-14
2.71869e-15
-4.8763e-15
-7.24406e-12
3.82624e-11
2.12007e-13
-1.54394e-11
1.98449e-19
-1.23807e-19
6.26767e-24
-7.0565e-23
2.52199e-22
-1.44551e-22
5.92264e-23
-7.30293e-22
1.74345e-21
-6.70633e-22
4.01503e-22
-3.48889e-21
5.77596e-21
-4.23641e-21
2.64909e-21
-7.66296e-21
7.69439e-21
-2.38232e-20
1.35612e-20
-5.06284e-21
1.54847e-21
-5.29087e-20
2.71919e-20
-4.94478e-23
-1.23174e-21
-3.6481e-21
4.77061e-21
9.5444e-21
-5.09686e-20
1.32729e-18
-3.02574e-19
1.64664e-19
-1.33526e-18
5.42694e-18
-3.01908e-18
7.96755e-18
-5.80094e-18
4.4796e-17
-6.25871e-17
1.78778e-16
-2.05657e-15
4.36131e-15
-5.33654e-18
6.72789e-15
-3.30162e-15
2.73096e-14
-1.64501e-18
6.87613e-16
-5.18117e-17
3.01001e-15
-8.81363e-18
7.05154e-18
-4.93922e-18
1.77942e-17
-1.76386e-17
4.1675e-16
-1.2487e-14
4.06873e-14
-3.02677e-17
2.04214e-14
-2.18062e-14
1.43142e-13
-6.10626e-14
6.00936e-15
-2.89539e-16
4.38805e-14
-1.73414e-14
9.37727e-19
1.51477e-17
7.1324e-17
-8.00297e-17
-3.19293e-17
4.22225e-17
1.32177e-16
-2.41604e-16
-2.53814e-17
3.38716e-17
4.32677e-17
-5.35584e-17
-2.51517e-15
5.80966e-14
4.26003e-14
-2.19447e-13
-7.22851e-14
1.58162e-14
9.99921e-15
1.8006e-14
-2.42749e-14
1.54663e-13
5.21973e-15
-1.38907e-13
7.25299e-20
-4.04331e-20
6.05347e-25
-9.20086e-24
4.27246e-23
-2.20272e-23
7.44678e-24
-1.58969e-22
4.49657e-22
-2.1844e-22
1.0975e-22
-1.00994e-21
1.85099e-21
-1.50039e-21
7.74905e-22
-2.81468e-21
3.53322e-21
-7.0726e-21
3.40077e-21
-3.36012e-21
2.15257e-21
-1.30164e-20
5.8214e-21
-6.95443e-22
-7.06861e-22
-3.5237e-21
2.04444e-21
2.7493e-21
-8.91476e-21
5.99559e-20
-1.07694e-20
4.74789e-20
-1.35418e-18
1.60987e-18
-5.36116e-19
8.5173e-18
-8.89159e-18
4.50032e-17
-6.5677e-18
2.68703e-18
-4.57449e-19
5.13535e-18
-1.82896e-18
4.71152e-19
-5.44933e-19
1.44076e-18
-1.20775e-18
1.11243e-18
-2.8718e-18
4.36867e-18
-3.5328e-18
5.90689e-18
-6.02452e-18
1.62997e-17
-9.49361e-18
4.32615e-18
-9.14605e-19
7.90751e-18
-7.54358e-18
7.60006e-19
-7.01619e-19
2.94622e-18
-2.47045e-18
6.2427e-19
-2.26805e-18
7.85771e-18
-5.66838e-18
2.2461e-18
-3.28948e-18
5.17071e-17
-2.66741e-17
-4.27302e-18
2.61034e-17
2.56745e-16
-2.03333e-16
-3.23252e-17
1.1996e-16
6.36613e-17
-1.51709e-16
-3.35337e-13
1.01479e-12
1.07889e-12
-1.44021e-12
-1.05673e-12
1.67093e-12
-4.44667e-13
-3.83975e-13
-3.1864e-12
4.79412e-12
5.58325e-12
-7.52028e-12
2.14891e-20
-1.0801e-20
2.55415e-25
-6.68835e-25
4.58082e-24
-2.32894e-24
7.0546e-25
-2.34502e-23
7.89317e-23
-5.14433e-23
2.24709e-23
-1.9453e-22
3.83205e-22
-3.67493e-22
1.60499e-22
-6.21945e-22
8.29175e-22
-1.51167e-21
6.20836e-22
-8.56042e-22
6.5435e-22
-2.42915e-21
9.43265e-22
-3.32146e-22
5.65058e-23
-1.00503e-21
4.34128e-22
3.19156e-22
-4.72922e-22
1.66062e-21
-1.97416e-22
6.11991e-21
-5.3899e-20
8.1332e-20
-8.81264e-21
7.74673e-20
-8.36713e-20
3.46399e-19
-3.87822e-20
9.30452e-20
-1.1334e-19
3.44844e-19
-8.54649e-20
1.47188e-19
-2.14652e-19
5.40949e-19
-1.24882e-19
3.77898e-19
-7.99191e-19
1.48711e-18
-3.69556e-19
1.16985e-18
-1.21221e-18
3.36747e-18
-8.95385e-19
1.15179e-18
-8.52129e-19
3.16566e-18
-7.56385e-19
6.90537e-19
-7.50687e-19
1.93221e-18
-5.4473e-19
8.99285e-19
-1.17919e-18
3.724e-18
-1.14833e-18
1.42258e-18
-1.70428e-18
8.48629e-18
-2.53866e-18
1.26189e-17
-1.86946e-17
1.10402e-16
-6.42828e-17
6.12729e-16
-5.0964e-16
1.74584e-15
-9.48712e-15
1.24689e-14
1.78958e-12
2.44304e-13
-2.10943e-13
-2.99985e-11
-1.31889e-09
5.02169e-10
-2.67444e-09
2.76456e-09
-1.13713e-09
3.90362e-10
-2.27155e-08
5.04442e-21
-2.14766e-21
-9.3843e-24
-2.40218e-26
2.78999e-25
-2.23652e-25
8.13491e-26
-2.19564e-24
9.25437e-24
-9.13222e-24
3.44793e-24
-2.6047e-23
5.55672e-23
-6.44718e-23
2.37594e-23
-9.46083e-23
1.29729e-22
-2.35315e-22
8.20691e-23
-1.40538e-22
1.17878e-22
-3.39237e-22
1.12534e-22
-7.31197e-23
2.85527e-23
-1.67659e-22
5.84062e-23
6.46214e-25
-1.99489e-23
6.2086e-24
3.69198e-24
1.03187e-22
-3.52011e-22
7.24984e-22
-1.1152e-22
1.24605e-21
-3.59312e-21
6.22316e-21
-1.03887e-21
5.88467e-21
-6.97127e-21
1.74968e-20
-2.68724e-21
8.15474e-21
-1.11798e-20
2.37668e-20
-4.114e-21
2.39493e-20
-6.26343e-20
8.60063e-20
-1.86447e-20
8.82056e-20
-9.16342e-20
2.09873e-19
-4.32854e-20
7.95476e-20
-5.20824e-20
1.67587e-19
-3.32092e-20
5.0554e-20
-5.87491e-20
1.26348e-19
-3.15012e-20
1.13245e-19
-1.89929e-19
3.70475e-19
-1.16142e-19
2.28408e-19
-2.77265e-19
7.54159e-19
-2.31615e-19
9.48006e-19
-1.58091e-16
3.93588e-17
-5.00616e-17
4.56702e-15
-2.61578e-15
1.07493e-14
-9.08719e-15
4.87873e-15
-1.28087e-13
1.3246e-13
-8.08267e-15
1.64679e-11
-1.73449e-09
1.88582e-09
-3.32724e-11
6.77867e-09
-1.07004e-08
2.2238e-08
-1.7596e-08
8.33307e-22
-2.98171e-22
-1.5147e-24
2.09787e-26
5.20163e-27
-3.3095e-26
1.07915e-26
-1.2797e-25
7.93872e-25
-1.20275e-24
3.86189e-25
-2.61414e-24
6.00327e-24
-8.00894e-24
2.46274e-24
-1.05167e-23
1.45629e-23
-2.62521e-23
7.67464e-24
-1.61353e-23
1.42688e-23
-3.42956e-23
9.56393e-24
-9.85735e-24
4.97475e-24
-1.84013e-23
5.24123e-24
-1.35097e-24
-7.36241e-25
-2.2618e-24
8.79857e-25
2.12411e-24
-9.46895e-24
1.43695e-23
-1.71012e-24
3.22249e-23
-8.51176e-23
1.25325e-22
-1.54647e-23
1.40718e-22
-1.81128e-22
3.57074e-22
-4.34354e-23
2.38818e-22
-4.14938e-22
6.35647e-22
-8.56436e-23
1.11271e-21
-2.97164e-21
3.30925e-21
-4.92682e-22
3.89209e-21
-4.0223e-21
7.53139e-21
-1.10872e-21
3.25968e-21
-2.83171e-21