/*--------------------------------*- C++ -*----------------------------------*\
| =========                 |                                                 |
| \\      /  F ield         | OpenFOAM: The Open Source CFD Toolbox           |
|  \\    /   O peration     | Version:  v1912                                 |
|   \\  /    A nd           | Website:  www.openfoam.com                      |
|    \\/     M anipulation  |                                                 |
\*---------------------------------------------------------------------------*/
FoamFile
{
    version     2.0;
    format      ascii;
    class       volScalarField;
    location    "0.55";
    object      p;
}
// * * * * * * * * * * * * * * * * * * * * * * * * * * * * * * * * * * * * * //

dimensions      [1 -1 -2 0 0 0 0];


internalField   nonuniform List<scalar> 
9072
(
528.513
556.661
562.695
571.998
578.882
583.736
590.296
599.935
612.315
627.215
644.643
664.622
687.075
711.781
738.467
766.797
795.392
818.272
829.742
843.097
847.484
843.922
893.248
467.71
496.205
502.059
511.58
518.989
524.101
530.836
540.549
552.995
567.924
585.348
605.331
627.795
652.477
678.987
706.766
734.582
758.875
773.804
779.974
796.21
755.591
801.925
405.8
434.152
439.14
449.279
458.014
463.658
470.739
480.649
493.148
508.053
525.458
545.473
568.018
592.771
619.221
646.592
673.446
697.127
713.995
727.162
757.181
681.114
708.299
343.732
370.845
374.049
385.266
396.606
402.858
410.253
420.32
432.805
447.623
464.978
485.043
507.734
532.66
559.194
586.442
613.035
636.937
656.268
673.743
694.519
645.053
663.137
283.107
306.609
305.788
318.192
335.21
342.038
349.537
359.622
371.981
386.624
403.89
424.023
446.94
472.164
498.955
526.35
553.082
577.602
598.723
617.445
632.967
614.689
637.577
226.251
242.032
234.318
247.552
273.849
281.177
288.523
298.512
310.636
325.016
342.146
362.373
385.616
411.29
438.537
466.344
493.542
518.903
541.562
561.7
578.123
582.112
612.459
174.889
180.094
165.359
180.248
212.64
219.819
227.048
236.889
248.69
262.712
279.671
300.023
323.727
350.036
377.959
406.431
434.359
460.726
484.832
506.529
525.243
540.501
573.023
128.13
125.267
104.393
119.504
149.187
156.927
164.925
174.649
186.057
199.631
216.396
236.863
261.2
288.372
317.225
346.611
375.491
402.995
428.536
451.871
472.831
492.562
521.866
428.762
427.388
432.351
530.879
896.097
889.196
458.351
856.649
520.612
192.877
155.603
149.304
150.685
179.047
190.128
204.692
219.485
509.864
737.436
414.099
412.758
414.327
428.925
781.448
700.127
96.1281
362.719
191.883
147.157
143.303
142.187
145.019
150.053
154.646
157.996
159.909
198.298
581.527
413.837
412.377
414.233
415.533
600.665
431.649
65.4326
107.093
152.63
144.905
140.238
139.527
143.68
149.62
153.983
157.902
159.287
158.847
357.245
414.273
412.737
414.083
411.915
440.944
284.982
162.022
137.211
144.791
140.639
138.317
138.089
142.882
148.921
153.152
157.243
158.555
152.087
225.971
414.341
413.488
413.925
385.409
348.886
189.383
151.14
141.122
140.261
137.664
135.923
135.973
141.418
147.856
151.94
155.488
157.035
151.549
164.453
414.259
413.781
409.292
341.724
312.408
189.833
146.863
141.2
138.815
135.885
134.146
133.665
139.718
146.805
150.988
154.07
155.673
150.946
152.475
414.217
414.132
370.299
296.859
213.439
157.866
144.921
140.657
138.483
134.632
132.063
131.413
137.936
145.68
149.897
152.071
153.235
149.474
148.208
407.403
397.464
333.73
248.44
127.345
138.627
142.904
140.154
138.358
133.742
129.774
129.341
136.581
144.626
148.719
149.59
149.36
148.637
151.093
42.4538
65.6947
25.8966
31.3649
62.5827
74.0783
83.9824
94.1355
104.988
118.009
134.118
154.517
180.124
208.754
239.193
270.04
300.411
329.539
356.94
382.36
405.846
427.605
443.489
1.42346
1.69602
1.34419
1.69194
1.66121
1.49706
2.37752
3.71304
5.41518
8.26896
13.3419
23.6771
43.4289
74.1945
109.715
143.342
176.704
209.135
239.563
268.25
295.191
320.889
345.809
1.28471
1.36503
1.25384
1.34444
1.2662
1.14884
1.10092
1.13611
1.21566
1.29729
1.37048
1.40847
1.39808
1.88651
7.10536
25.4498
52.9468
91.3504
122.932
155.431
185.033
213.726
242.815
1.11183
1.18963
1.15125
1.15286
1.12673
1.08084
1.05314
1.06585
1.10681
1.15659
1.20397
1.23871
1.26604
1.28925
1.35378
1.38334
1.50862
5.07734
20.9889
43.33
73.0933
102.018
135.024
0.944023
1.02136
1.006
0.996453
0.978578
0.959267
0.950049
0.95954
0.984908
1.01908
1.05699
1.09255
1.12713
1.16241
1.20092
1.23384
1.26134
1.28621
1.37655
1.43918
1.87377
10.7134
30.7527
0.780701
0.856954
0.849296
0.841625
0.832268
0.82532
0.824985
0.835181
0.855438
0.883122
0.915618
0.949254
0.983467
1.01892
1.05551
1.09247
1.13107
1.1765
1.24035
1.27767
1.29983
1.39389
1.45841
0.618595
0.695555
0.691236
0.687257
0.684167
0.683794
0.688469
0.700007
0.718554
0.743162
0.772148
0.803966
0.837574
0.873145
0.910726
0.950542
0.993051
1.04338
1.09784
1.1506
1.20481
1.2693
1.33221
0.455054
0.534464
0.532758
0.532117
0.533129
0.536868
0.544672
0.557483
0.575638
0.598717
0.625925
0.656402
0.689588
0.725414
0.764032
0.805824
0.851505
0.902004
0.956854
1.01544
1.07561
1.13044
1.18333
0.288283
0.371968
0.373114
0.375304
0.379229
0.385687
0.395538
0.409429
0.427632
0.450041
0.476304
0.506006
0.538869
0.574849
0.6141
0.656925
0.703735
0.754785
0.809887
0.868245
0.923586
0.973468
1.01112
0.122102
0.207849
0.212302
0.216771
0.222744
0.231013
0.242239
0.256909
0.27528
0.297391
0.323131
0.352347
0.384938
0.420919
0.460426
0.503655
0.550769
0.601691
0.655713
0.711121
0.758753
0.811908
0.838803
-0.0387506
0.0450367
0.0509738
0.0567263
0.063937
0.0733239
0.0854095
0.100576
0.119065
0.140985
0.166359
0.195183
0.227472
0.263288
0.302762
0.346018
0.393063
0.443571
0.496407
0.54888
0.592087
0.625228
0.644507
-0.199056
-0.11621
-0.110887
-0.104842
-0.0970715
-0.0870993
-0.0745614
-0.0591632
-0.0406887
-0.0189972
0.00600734
0.0344074
0.0662882
0.10176
0.140969
0.184025
0.230898
0.281251
0.334048
0.387179
0.435309
0.478641
0.508063
-0.362098
-0.278751
-0.274113
-0.268225
-0.260306
-0.250122
-0.237444
-0.222052
-0.203757
-0.182407
-0.157866
-0.130009
-0.0987009
-0.0637856
-0.0250778
0.0175673
0.0641997
0.114675
0.16844
0.224427
0.280828
0.337272
0.390776
-0.527772
-0.443454
-0.439435
-0.43371
-0.425835
-0.415683
-0.4031
-0.387917
-0.369972
-0.349113
-0.32519
-0.298053
-0.267532
-0.233432
-0.195521
-0.153585
-0.107443
-0.056975
-0.00223515
0.0565424
0.119142
0.185928
0.256184
-0.695992
-0.610619
-0.606963
-0.601407
-0.59369
-0.58373
-0.571416
-0.556614
-0.539187
-0.51899
-0.495873
-0.469673
-0.4402
-0.40723
-0.370493
-0.329703
-0.284549
-0.234673
-0.179742
-0.119437
-0.0532648
0.0196393
0.10031
-0.866594
-0.780027
-0.776705
-0.771324
-0.763842
-0.754189
-0.742279
-0.728007
-0.711257
-0.691901
-0.669794
-0.64477
-0.616636
-0.585159
-0.55005
-0.51097
-0.467539
-0.419192
-0.365324
-0.305281
-0.238092
-0.162363
-0.076113
-1.03941
-0.951621
-0.948546
-0.943397
-0.936215
-0.92696
-0.915569
-0.901957
-0.886034
-0.867689
-0.84679
-0.823186
-0.796695
-0.767101
-0.734118
-0.69739
-0.656444
-0.610791
-0.55969
-0.502077
-0.436605
-0.361309
-0.273114
-1.21431
-1.12545
-1.12246
-1.11754
-1.11071
-1.10192
-1.09114
-1.0783
-1.06333
-1.04615
-1.02665
-1.00469
-0.980144
-0.952822
-0.922488
-0.888831
-0.851449
-0.809826
-0.763204
-0.710473
-0.649999
-0.579184
-0.493734
-1.39116
-1.30127
-1.29833
-1.29365
-1.28719
-1.27892
-1.26883
-1.25685
-1.24294
-1.22705
-1.2091
-1.189
-1.16666
-1.14196
-1.11475
-1.08484
-1.05194
-1.01569
-0.975506
-0.930483
-0.879052
-0.818414
-0.743379
-1.56977
-1.47893
-1.47601
-1.47157
-1.4655
-1.4578
-1.44844
-1.43739
-1.42463
-1.41012
-1.39383
-1.37575
-1.35582
-1.33402
-1.31032
-1.28468
-1.25705
-1.22735
-1.19546
-1.16104
-1.12331
-1.08044
-1.02816
-1.74987
-1.65822
-1.65533
-1.65114
-1.64549
-1.63838
-1.62979
-1.61971
-1.60813
-1.59507
-1.58053
-1.56454
-1.54714
-1.5284
-1.50842
-1.48738
-1.46551
-1.44318
-1.42091
-1.39944
-1.37973
-1.36288
-1.34976
-1.93112
-1.83885
-1.83612
-1.83217
-1.82696
-1.82046
-1.81266
-1.80356
-1.79319
-1.78159
-1.76881
-1.75493
-1.74008
-1.72442
-1.70819
-1.69178
-1.67575
-1.66095
-1.6487
-1.64109
-1.64153
-1.65595
-1.69523
-2.11342
-2.02063
-2.01824
-2.01456
-2.00977
-2.00387
-1.99686
-1.98874
-1.97957
-1.96941
-1.95835
-1.94652
-1.93413
-1.92141
-1.90875
-1.89671
-1.88612
-1.87828
-1.87519
-1.88016
-1.89889
-1.94188
-2.03002
-2.29671
-2.20369
-2.20138
-2.19806
-2.19373
-2.18843
-2.18218
-2.17502
-2.16701
-2.15822
-2.14879
-2.13889
-2.12876
-2.11873
-2.10927
-2.10105
-2.09509
-2.09293
-2.09697
-2.11111
-2.142
-2.20161
-2.31312
-2.48111
-2.38773
-2.38561
-2.3826
-2.37871
-2.37397
-2.36845
-2.3622
-2.35527
-2.34777
-2.33984
-2.33168
-2.32356
-2.31585
-2.30907
-2.30393
-2.3015
-2.30335
-2.31185
-2.3307
-2.36587
-2.42732
-2.5324
-2.66647
-2.57268
-2.57075
-2.56802
-2.56454
-2.56035
-2.55551
-2.55009
-2.54416
-2.53782
-2.53123
-2.52458
-2.51818
-2.51239
-2.50771
-2.50485
-2.50478
-2.50891
-2.51924
-2.53867
-2.5715
-2.62405
-2.70547
-2.85267
-2.75845
-2.75668
-2.7542
-2.7511
-2.74741
-2.74321
-2.73855
-2.73351
-2.7282
-2.72276
-2.7174
-2.7124
-2.7081
-2.70498
-2.70364
-2.70488
-2.70982
-2.71993
-2.7371
-2.76378
-2.80291
-2.85747
-3.03956
-2.94494
-2.94329
-2.94102
-2.93826
-2.93507
-2.93144
-2.92744
-2.92318
-2.91876
-2.9143
-2.91
-2.90611
-2.90293
-2.90087
-2.90041
-2.90216
-2.9069
-2.91554
-2.9291
-2.94856
-2.97458
-3.00674
-3.22689
-3.13202
-3.13042
-3.12834
-3.12591
-3.12313
-3.12002
-3.11664
-3.11306
-3.10939
-3.10576
-3.10231
-3.09928
-3.09692
-3.09553
-3.0955
-3.09724
-3.10121
-3.10792
-3.11771
-3.13067
-3.14625
-3.1626
-3.41434
-3.31949
-3.3179
-3.31604
-3.31392
-3.31154
-3.30891
-3.30607
-3.30309
-3.30006
-3.29709
-3.29433
-3.29195
-3.29016
-3.28919
-3.28931
-3.29077
-3.29383
-3.29867
-3.30526
-3.31326
-3.32164
-3.32831
-3.60168
-3.50712
-3.50561
-3.50403
-3.50224
-3.50023
-3.49803
-3.49567
-3.4932
-3.49071
-3.4883
-3.48608
-3.4842
-3.48281
-3.48209
-3.48222
-3.48335
-3.48558
-3.48892
-3.49319
-3.49791
-3.50206
-3.50383
-3.78889
-3.69474
-3.69349
-3.69224
-3.69079
-3.68915
-3.68734
-3.6854
-3.68337
-3.68134
-3.67939
-3.6776
-3.6761
-3.67502
-3.67446
-3.67456
-3.6754
-3.67701
-3.67934
-3.68217
-3.68509
-3.68732
-3.6876
-3.97618
-3.88235
-3.88155
-3.88066
-3.87956
-3.87826
-3.87681
-3.87523
-3.87359
-3.87194
-3.87036
-3.86893
-3.86774
-3.86689
-3.86647
-3.86656
-3.86722
-3.86847
-3.87023
-3.87236
-3.8746
-3.87651
-3.87743
-4.16381
-4.0701
-4.06983
-4.0693
-4.06852
-4.06754
-4.0664
-4.06515
-4.06383
-4.06251
-4.06124
-4.06011
-4.05918
-4.05853
-4.05823
-4.05836
-4.05896
-4.06006
-4.06163
-4.0636
-4.06589
-4.06839
-4.07095
-4.35203
-4.25828
-4.25841
-4.25819
-4.25769
-4.25698
-4.25611
-4.25514
-4.2541
-4.25305
-4.25206
-4.25117
-4.25046
-4.25
-4.24983
-4.25004
-4.25069
-4.2518
-4.25342
-4.25557
-4.25832
-4.2618
-4.26621
-4.5409
-4.44698
-4.44732
-4.44732
-4.44704
-4.44655
-4.44591
-4.44517
-4.44438
-4.44357
-4.4428
-4.44213
-4.44162
-4.44132
-4.44131
-4.44163
-4.44238
-4.44362
-4.44543
-4.44792
-4.45129
-4.45583
-4.46198
-4.73035
-4.63619
-4.63661
-4.63674
-4.63661
-4.63629
-4.63583
-4.63529
-4.63469
-4.63409
-4.63353
-4.63305
-4.63271
-4.63257
-4.63271
-4.63317
-4.63405
-4.63545
-4.6375
-4.64036
-4.64435
-4.64987
-4.65754
-4.92022
-4.8258
-4.82622
-4.8264
-4.82636
-4.82616
-4.82585
-4.82546
-4.82504
-4.82461
-4.82423
-4.82391
-4.82373
-4.82375
-4.82402
-4.82462
-4.82563
-4.8272
-4.82946
-4.83265
-4.83712
-4.84339
-4.85222
-5.11037
-5.01571
-5.01607
-5.01626
-5.01627
-5.01616
-5.01596
-5.0157
-5.01542
-5.01514
-5.01491
-5.01475
-5.01471
-5.01486
-5.01525
-5.01595
-5.01707
-5.01876
-5.02117
-5.02456
-5.02929
-5.03592
-5.04528
-5.3007
-5.20584
-5.20613
-5.20629
-5.20632
-5.20626
-5.20614
-5.20599
-5.20583
-5.20569
-5.20559
-5.20556
-5.20565
-5.20591
-5.20639
-5.20717
-5.20836
-5.2101
-5.21257
-5.216
-5.22073
-5.2273
-5.23645
-5.49113
-5.39615
-5.39635
-5.39646
-5.39649
-5.39647
-5.39641
-5.39635
-5.39629
-5.39626
-5.39628
-5.39636
-5.39656
-5.39692
-5.39748
-5.39832
-5.39955
-5.40128
-5.4037
-5.40703
-5.41155
-5.41773
-5.42621
-5.68127
-5.5862
-5.58631
-5.58639
-5.58642
-5.58644
-5.58645
-5.58647
-5.58651
-5.58658
-5.58669
-5.58687
-5.58716
-5.58758
-5.58819
-5.58905
-5.59024
-5.59188
-5.59413
-5.59718
-5.60132
-5.60692
-5.6145
343.881
384.558
387.872
386.861
359.016
361.829
365.428
366.022
267.8
280.167
290.768
297.867
164.714
182.204
199.384
214.611
53.7773
73.2496
96.4139
121.637
1.56517
2.38656
6.87487
26.1185
1.36522
1.42564
1.46493
1.45755
1.23767
1.28943
1.35837
1.44091
1.02052
1.0386
1.08097
1.14608
0.792717
0.766065
0.782583
0.847591
0.630982
0.608782
0.605002
0.64757
0.513998
0.517092
0.530181
0.561452
0.427195
0.444686
0.471821
0.514962
0.320769
0.359612
0.405229
0.459604
0.179301
0.226921
0.279325
0.336867
0.0106393
0.0632316
0.12042
0.182185
-0.181658
-0.125176
-0.0632193
0.00412529
-0.401216
-0.342026
-0.275272
-0.20074
-0.657613
-0.599626
-0.530857
-0.449712
-0.965876
-0.920306
-0.861715
-0.785334
-1.34019
-1.33197
-1.31864
-1.29367
-1.77013
-1.83521
-1.9318
-2.07849
-2.18388
-2.32337
-2.53676
-2.87949
-2.49256
-2.64706
-2.8665
-3.19205
-2.6855
-2.80499
-2.96009
-3.16243
-2.81053
-2.88444
-2.97142
-3.07308
-2.91911
-2.95771
-2.99789
-3.03808
-3.03745
-3.0537
-3.06754
-3.07739
-3.17419
-3.17793
-3.17831
-3.17418
-3.32963
-3.32732
-3.32181
-3.31225
-3.50099
-3.49681
-3.49004
-3.48007
-3.68469
-3.68129
-3.67618
-3.66899
-3.87672
-3.87551
-3.87358
-3.87082
-4.0732
-4.07446
-4.07585
-4.07748
-4.27117
-4.27447
-4.27834
-4.283
-4.46917
-4.47399
-4.47958
-4.48619
-4.66667
-4.67282
-4.68003
-4.68866
-4.86291
-4.87022
-4.8789
-4.88933
-5.05669
-5.06457
-5.07398
-5.08524
-5.24736
-5.25474
-5.26332
-5.27316
-5.43607
-5.44257
-5.44995
-5.45824
-5.6233
-5.62911
-5.63581
-5.64354
369.662
354.467
298.179
189.413
112.466
143.589
142.23
140.004
138.332
133.335
127.965
129.179
135.655
143.93
147.157
147.333
145.571
147.599
150.493
359.497
319
240.495
163.565
153.33
147.189
143.956
141.215
138.703
134.639
131.514
132.25
137.471
143.443
146.2
145.834
143.188
146.804
150.242
299.09
264.407
165.797
154.603
154.597
148.233
145.408
142.882
139.746
136.438
133.691
135.818
140.582
142.654
147.056
147.069
145.22
146.749
149.155
227.174
204.341
154.206
153.915
153.623
149.285
146.669
144.746
141.434
137.104
134.528
137.546
142.206
143.193
148.786
148.628
147.634
147.043
159.753
153.086
158.831
154.268
154.115
154.194
154.766
156.154
151.891
143.038
136.819
136.25
139.763
144.396
146.267
149.333
148.994
148.055
147.255
164.327
76.0577
149.613
154.466
154.357
154.896
155.833
171.25
179.629
141.112
130.292
136.202
143.996
149.891
151.158
149.63
149.026
148.243
147.968
171.287
5.40397
89.6314
154.469
153.746
154.429
156.464
138.493
97.8373
100.895
98.5663
140.544
147.833
151.249
151.499
149.766
149.319
148.734
167.994
336.688
1.49463
11.2709
142.093
152.974
148.936
149.362
94.1452
45.726
77.9959
119.205
145.702
149.372
150.512
150.464
149.752
149.912
155.202
299.781
556.314
1.24761
1.39412
10.9635
127.358
137.703
118.982
54.0328
21.0333
29.4056
73.9572
149.699
150.865
150.614
150.58
151.313
152.13
173.969
405.423
696.552
0.982347
1.25803
1.41357
2.1892
10.7712
9.46841
2.5167
2.88563
2.63207
13.4278
105.805
150.666
150.516
151.229
151.885
152.208
170.607
490.29
746.599
0.774683
1.09088
1.30701
1.59451
1.82313
1.9479
2.12471
2.33907
2.3054
2.12719
18.9657
127.314
150.459
151.418
152.362
152.528
210.163
471.582
646.694
0.663085
1.00675
1.31882
1.45495
1.51326
1.64251
1.90429
2.08469
2.04192
1.88789
1.60454
12.2503
95.0807
144.065
150.275
270.893
321.63
349.472
481.439
0.593128
0.860928
1.12824
1.26413
1.34417
1.46831
1.6394
1.75222
1.75723
1.67793
1.32035
1.90745
-11.2641
-5.28672
408.763
373.711
316.838
324.859
377.448
0.542608
0.737843
0.930335
1.07335
1.18349
1.2938
1.39748
1.46263
1.46205
1.37169
1.11162
0.499982
-2.31656
-12.76
68.9409
179.598
311.989
281.604
325.339
0.420773
0.59354
0.764197
0.908302
1.02386
1.11573
1.18169
1.21306
1.19442
1.10217
0.911359
0.647772
-0.988698
1.00791
4.05035
10.4401
194.582
203.537
303.488
0.270539
0.443939
0.61635
0.765779
0.880404
0.955481
0.992837
0.996675
0.963326
0.876321
0.717844
0.404158
-0.242737
0.875349
2.59406
2.89597
87.3533
174.536
302.682
0.101011
0.292381
0.48376
0.648281
0.764693
0.821468
0.827021
0.799754
0.751133
0.680118
0.607142
0.630767
0.693188
0.723897
-5.43796
2.34925
75.0068
193.517
318.83
-0.0905645
0.138016
0.367117
0.561311
0.687528
0.718002
0.673723
0.598063
0.519484
0.453654
0.440738
0.622608
0.855074
-15.629
-29.9935
-8.82171
73.2803
211.553
291.75
-0.322606
-0.0247939
0.264753
0.504896
0.662098
0.642065
0.507502
0.351818
0.210323
0.103016
0.0129975
0.457101
-0.233216
-10.3775
-9.21591
25.231
86.1134
193.425
225.862
-0.655314
-0.22401
0.16655
0.451454
0.697967
0.560272
0.267856
0.00352748
-0.238159
-0.492669
-1.022
-0.950114
-3.57699
-4.55587
-1.9858
15.9799
43.3443
102.739
150.29
-1.27474
-0.655926
0.0809377
0.232658
0.5699
0.274271
-0.19116
-0.505972
-0.831792
-1.34138
-2.84404
-4.77189
-4.16969
-4.32871
-4.13296
-3.54896
-2.28879
2.08188
64.9678
-2.62628
-2.24005
-0.652811
-0.843548
-1.19321
-1.01869
-1.10989
-1.18038
-1.44715
-1.99322
-3.17653
-4.50584
-4.33115
-4.41377
-4.28354
-3.48815
-2.73127
-2.56899
15.8338
-3.75484
-3.77944
-2.0232
-2.23935
-2.68409
-3.71058
-2.42678
-1.85993
-1.9237
-2.31305
-3.04238
-3.89403
-4.08341
-4.58623
-4.65162
-3.935
-3.18538
-3.46388
4.08113
-3.86331
-4.51763
-3.32131
-2.89237
-3.53582
-5.54212
-2.9837
-2.19
-2.14943
-2.42388
-2.91435
-3.48491
-3.89773
-4.78202
-5.06909
-4.33511
-3.40581
-2.88141
5.54519
-3.5347
-4.00737
-4.08579
-3.67109
-3.05595
-2.60475
-2.2811
-2.04604
-2.13677
-2.40853
-2.81397
-3.34425
-4.00678
-4.90929
-5.46212
-4.47346
-3.31951
-2.86313
-2.91609
-3.22633
-3.54271
-3.43079
-3.01676
-2.21744
-1.475
-1.53532
-1.78357
-2.03824
-2.3409
-2.68642
-3.08517
-3.69552
-4.37653
-4.90169
-3.82384
-3.00175
-2.75281
-2.63525
-3.08662
-3.13071
-3.04292
-2.76672
-2.41786
-1.55072
-1.48374
-1.68667
-1.99694
-2.30372
-2.57782
-2.81155
-3.02789
-3.20042
-3.13269
-2.70625
-2.50129
-2.65759
-1.33001
-3.0815
-3.04424
-2.92304
-2.69866
-2.43767
-2.2478
-1.69627
-1.71275
-2.0536
-2.34353
-2.53508
-2.63203
-2.62251
-2.49993
-2.29308
-2.11735
-2.09191
-2.26274
-5.29777
-3.16025
-3.09997
-2.97941
-2.79647
-2.59569
-2.45984
-2.22107
-1.93514
-2.2599
-2.49163
-2.57545
-2.56823
-2.46899
-2.29572
-2.10041
-1.97352
-1.90973
-2.03528
5.26923
-3.2924
-3.22866
-3.11837
-2.95778
-2.7773
-2.71163
-2.46652
-2.28375
-2.68376
-2.77887
-2.70348
-2.59966
-2.45068
-2.27875
-2.14584
-2.13061
-2.18333
-2.73817
-2.36324
-3.46127
-3.40561
-3.31054
-3.15218
-2.87022
-2.8092
-3.12252
-2.91411
-3.03622
-3.10441
-2.91874
-2.70731
-2.51963
-2.35133
-2.25889
-2.33352
-2.72645
-3.18537
-2.73813
-3.65591
-3.61892
-3.55765
-3.44589
-3.04989
-3.23179
-4.21294
-4.2904
-3.71705
-3.52113
-3.20859
-2.8716
-2.63487
-2.44602
-2.32193
-2.27449
-2.3279
-2.36328
-2.18523
-3.86593
-3.85437
-3.84648
-3.86204
-4.09539
-4.42702
-4.66217
-4.7942
-4.33941
-3.8599
-3.50743
-3.06665
-2.76724
-2.51262
-2.27873
-2.12894
-2.0782
-2.02788
-1.92843
-4.08034
-4.09172
-4.14399
-4.19376
-4.39234
-4.16299
-4.84667
-4.63267
-4.38948
-4.01687
-3.74579
-3.27297
-2.91967
-2.58546
-2.24936
-1.99546
-1.90526
-1.81415
-1.77203
-4.29081
-4.31489
-4.38603
-4.46557
-4.62216
-4.82374
-4.78542
-4.74242
-4.46257
-4.15288
-3.95018
-3.49682
-3.1275
-2.75722
-2.37569
-1.94363
-1.62735
-1.69419
-1.54764
-4.49675
-4.52321
-4.56396
-4.57921
-4.9422
-5.06002
-5.12472
-4.955
-4.8029
-4.4378
-4.15136
-3.76454
-3.4272
-3.12205
-2.89895
-3.15713
-1.77397
-2.1906
-1.73563
-4.70279
-4.74305
-4.81328
-4.90342
-5.09563
-5.22659
-5.38205
-5.41741
-5.2655
-4.83005
-4.4201
-4.09131
-3.83157
-3.70455
-3.71043
-4.90051
-5.47705
-6.0029
-3.71954
-4.9066
-4.95019
-5.02474
-5.07985
-5.24586
-5.40651
-5.62316
-5.74339
-5.57499
-5.16652
-4.63235
-4.45602
-4.31317
-4.31255
-5.34549
-6.11268
-6.02878
-6.17762
-6.03397
-5.10383
-5.15338
-5.25327
-5.29361
-5.40287
-5.55723
-5.79585
-5.91014
-5.7446
-5.5111
-5.05404
-4.90835
-4.87277
-4.4029
-5.93325
-5.88126
-6.04495
-6.1826
-6.40348
-5.28821
-5.32117
-5.38023
-5.44403
-5.54585
-5.67638
-5.88602
-5.96377
-5.80111
-5.73872
-5.46914
-5.51029
-5.35683
-5.29501
-5.64776
-5.95138
-6.10756
-6.31761
-6.46379
-5.47048
-5.49511
-5.53561
-5.60939
-5.69684
-5.78406
-5.88982
-5.91842
-5.81801
-5.93205
-5.96927
-6.27312
-6.53759
-5.56056
-5.73778
-6.00007
-6.18421
-6.54988
-6.6873
-5.65556
-5.68382
-5.72879
-5.79732
-5.86835
-5.91518
-5.91194
-5.79504
-5.8296
-6.13375
-6.26938
-7.0358
-11.8269
-5.60298
-6.03058
-6.11868
-6.17975
-6.35585
-7.12555
556.539
558.757
567.383
575.903
581.301
586.653
594.735
605.808
619.451
635.611
654.314
675.55
699.164
724.894
752.462
781.271
807.901
826.622
832.235
853.407
849.76
850.1
912.717
496.261
498.269
506.715
515.777
521.556
527.113
535.324
546.451
560.153
576.318
595.02
616.266
639.881
665.533
692.768
720.795
747.513
768.399
772.615
794.043
787.308
755.131
840.311
434.442
435.806
443.764
454.241
460.897
466.857
475.349
486.595
500.298
516.433
535.138
556.444
580.146
605.824
632.858
660.217
685.887
706.765
718.241
744.78
733.214
671.915
761.624
371.579
371.588
378.64
391.842
399.893
406.227
414.965
426.275
439.913
455.968
474.67
496.078
519.952
545.774
572.799
599.932
625.467
647.209
664.308
686.604
681.333
637.044
704.319
308.379
305.48
309.569
328.277
339.028
345.453
354.277
365.529
378.998
394.908
413.594
435.155
459.305
485.418
512.648
539.891
565.717
588.601
608.148
626.889
629.349
615.107
672.077
246.327
237.979
236.193
263.21
278.388
284.464
293.233
304.315
317.514
333.206
351.866
373.643
398.2
424.775
452.441
480.096
506.524
530.587
551.898
570.868
581.763
590.838
642.127
189.122
172.345
166.372
199.83
217.303
223.018
231.705
242.549
255.379
270.786
289.411
311.487
336.62
363.857
392.198
420.529
447.793
473.084
495.98
516.404
532.999
552.966
598.389
140.532
112.692
106.162
137.288
153.663
160.715
169.565
180.139
192.506
207.563
226.158
248.586
274.521
302.648
331.928
361.171
389.458
416.039
440.481
462.68
482.535
504.963
538.609
432.592
429.684
467.425
657.597
981.429
678.719
393.419
870.914
279.444
164.889
150.081
152.143
158.375
189.819
194.356
213.342
282.946
764.914
711.051
411.894
413.838
414.938
550.018
837.911
434.744
-240.409
351.808
157.742
143.831
142.432
143.233
147.451
152.75
156.156
159.595
162.044
399.525
681.055
410.682
413.718
413.952
415.375
620.21
246.586
-5.29937
154.531
149.7
141.834
139.357
141.086
146.723
152.07
155.866
159.316
157.84
190.669
728.36
411.932
413.685
413.925
386.078
391.147
229.576
124.42
145.355
143.234
139.412
137.584
139.998
146.033
151.287
155.03
158.859
156.285
157.993
702.084
413.654
413.673
411.54
357.756
348.755
172.447
141.924
141.288
138.765
137.225
135.267
138.201
144.831
150.241
153.402
157.448
154.864
148.109
515.824
414.096
413.839
380.48
314.984
375.8
156.706
143.17
140.257
137.061
135.418
133.086
136.123
143.513
149.344
152.067
156.153
152.902
149.185
279.903
414.153
404.226
334.553
251.187
197.004
149.6
142.541
139.895
136.233
133.475
130.762
134.161
142.071
148.331
150.75
153.689
151.265
149.963
169.341
413.236
365.372
296.184
177.775
102.391
144.914
141.621
139.668
135.905
131.715
128.532
132.63
140.798
147.252
149.593
150.351
148.82
150.094
151.878
86.9759
45.3548
17.7161
49.3025
69.0069
78.9685
89.0238
99.3976
111.134
125.675
143.361
166.811
194.193
223.79
254.654
285.34
315.148
343.499
369.883
394.349
416.869
436.741
420.786
3.26624
1.37676
1.95804
1.67084
1.57047
1.78314
3.0235
4.48455
6.62539
10.4745
17.4226
31.6563
58.119
91.682
126.495
160.311
192.895
224.713
254.072
281.927
308.154
333.598
356.694
1.33826
1.28212
1.31514
1.31621
1.20848
1.10828
1.1112
1.17434
1.25678
1.33672
1.39864
1.40687
1.46776
3.55715
14.5536
38.7616
71.7246
107.349
139.383
170.373
199.518
228.148
257.492
1.1905
1.17573
1.15967
1.14451
1.10407
1.06173
1.05502
1.08375
1.13173
1.18161
1.22316
1.2513
1.2791
1.32021
1.38267
1.36046
2.51075
11.4268
33.3231
57.152
87.5796
118.194
151.576
1.0244
1.01602
1.00192
0.98744
0.968279
0.952674
0.952396
0.970698
1.00106
1.03816
1.07494
1.10994
1.14449
1.18149
1.22362
1.2352
1.2608
1.33783
1.3791
1.52883
5.11854
19.6874
40.5787
0.859602
0.853295
0.845121
0.836352
0.828319
0.823988
0.828696
0.844225
0.868382
0.899038
0.932464
0.966239
1.00105
1.03703
1.07452
1.11037
1.15968
1.20613
1.25874
1.30624
1.33267
1.44767
1.46959
0.697535
0.693314
0.689062
0.685432
0.683491
0.685356
0.693326
0.708463
0.73013
0.757191
0.787883
0.820526
0.855112
0.891676
0.930347
0.971492
1.01956
1.06946
1.1247
1.17918
1.23294
1.30742
1.34892
0.535458
0.533416
0.532243
0.53235
0.534574
0.540184
0.550392
0.565914
0.586601
0.611859
0.640806
0.672666
0.707167
0.744357
0.784496
0.828116
0.876357
0.928784
0.985803
1.04598
1.1031
1.15799
1.20928
0.371603
0.372355
0.374014
0.377002
0.382085
0.390141
0.40195
0.417991
0.438329
0.462718
0.490747
0.52205
0.556463
0.59405
0.635041
0.679806
0.728744
0.781815
0.838743
0.897988
0.946608
0.998462
1.01563
0.20416
0.210125
0.214399
0.219516
0.226546
0.236221
0.249122
0.265625
0.285872
0.309818
0.337313
0.368223
0.402499
0.44022
0.481563
0.526723
0.575776
0.628394
0.683381
0.737124
0.782253
0.837029
0.821044
0.0404745
0.0482149
0.0537382
0.0600971
0.0683214
0.0790014
0.0925886
0.109396
0.129595
0.153242
0.18034
0.210893
0.244932
0.28256
0.323912
0.369075
0.41793
0.469821
0.522942
0.572158
0.611015
0.635355
0.643768
-0.1179
-0.113357
-0.108029
-0.101207
-0.092386
-0.0811722
-0.0672364
-0.0503209
-0.0302514
-0.00691439
0.0197774
0.0499071
0.0835658
0.120888
0.162012
0.206995
0.255682
0.307454
0.360774
0.412107
0.457792
0.495599
0.515039
-0.278841
-0.276163
-0.2714
-0.264535
-0.255513
-0.24411
-0.2301
-0.213278
-0.193473
-0.170543
-0.14436
-0.114795
-0.0817059
-0.0449173
-0.00425495
0.0403868
0.0889795
0.141202
0.196253
0.252652
0.309073
0.364819
0.413261
-0.443757
-0.441411
-0.436831
-0.430048
-0.421053
-0.409706
-0.395844
-0.3793
-0.359917
-0.337543
-0.312033
-0.283227
-0.250943
-0.214967
-0.175069
-0.13105
-0.0827517
-0.0301281
0.0266708
0.08735
0.152
0.220738
0.292538
-0.610898
-0.608842
-0.604452
-0.597821
-0.588996
-0.577875
-0.564334
-0.548238
-0.529444
-0.507806
-0.483169
-0.455357
-0.424168
-0.38935
-0.350624
-0.307694
-0.260224
-0.207859
-0.150285
-0.0871298
-0.0177158
0.0589059
0.144381
-0.780367
-0.778584
-0.774273
-0.767848
-0.759291
-0.748522
-0.735444
-0.719949
-0.701913
-0.6812
-0.657658
-0.631105
-0.601332
-0.568078
-0.53103
-0.489827
-0.444041
-0.392981
-0.336128
-0.272658
-0.201395
-0.120743
-0.0278878
-0.95229
-0.950349
-0.946224
-0.940062
-0.931849
-0.921536
-0.909045
-0.89429
-0.877171
-0.857567
-0.835337
-0.810313
-0.782301
-0.751053
-0.716247
-0.677483
-0.634139
-0.585996
-0.531768
-0.470426
-0.400343
-0.319097
-0.22262
-1.12621
-1.1242
-1.12024
-1.11437
-1.10656
-1.09678
-1.08498
-1.07109
-1.05502
-1.0367
-1.01599
-0.992754
-0.966842
-0.938048
-0.906097
-0.870635
-0.831204
-0.787203
-0.737688
-0.681338
-0.616099
-0.538676
-0.443258
-1.30212
-1.30002
-1.29621
-1.29064
-1.28328
-1.27411
-1.26307
-1.25014
-1.23525
-1.21833
-1.19932
-1.17812
-1.15461
-1.12868
-1.10015
-1.06878
-1.03426
-0.996134
-0.953677
-0.905703
-0.850133
-0.783182
-0.697433
-1.47989
-1.47765
-1.47399
-1.46874
-1.46186
-1.45333
-1.44313
-1.43123
-1.41759
-1.4022
-1.38502
-1.36601
-1.34515
-1.3224
-1.29774
-1.27112
-1.24247
-1.21169
-1.1786
-1.14267
-1.10271
-1.05589
-0.99562
-1.65927
-1.65693
-1.65341
-1.6485
-1.64212
-1.63427
-1.62494
-1.61411
-1.60179
-1.58798
-1.57271
-1.55601
-1.53793
-1.51856
-1.49802
-1.47653
-1.45438
-1.43199
-1.41002
-1.3893
-1.37089
-1.35578
-1.3448
-1.83993
-1.83764
-1.83431
-1.82973
-1.82387
-1.81672
-1.80827
-1.79853
-1.78754
-1.77534
-1.762
-1.74762
-1.73234
-1.71636
-1.69998
-1.68368
-1.66813
-1.6544
-1.64414
-1.64001
-1.64648
-1.67141
-1.73147
-2.02178
-2.01953
-2.01653
-2.0123
-2.00696
-2.0005
-1.99293
-1.98428
-1.97461
-1.96398
-1.95252
-1.94038
-1.92779
-1.91505
-1.90261
-1.89117
-1.88175
-1.87597
-1.87639
-1.8873
-1.91638
-1.97835
-2.10388
-2.20467
-2.20265
-2.19985
-2.19602
-2.1912
-2.18542
-2.17871
-2.17111
-2.1627
-2.15358
-2.14388
-2.13384
-2.12371
-2.11389
-2.10495
-2.0977
-2.09341
-2.09398
-2.10245
-2.12389
-2.16713
-2.24872
-2.40111
-2.38857
-2.3868
-2.38421
-2.38076
-2.37644
-2.37131
-2.36541
-2.35881
-2.35158
-2.34384
-2.33577
-2.32759
-2.31963
-2.3123
-2.30624
-2.30229
-2.30176
-2.30658
-2.31968
-2.34574
-2.39245
-2.47287
-2.60991
-2.57356
-2.57189
-2.56948
-2.56637
-2.56253
-2.558
-2.55287
-2.54719
-2.54104
-2.53455
-2.5279
-2.52133
-2.51518
-2.50987
-2.506
-2.50439
-2.50621
-2.51314
-2.52759
-2.55308
-2.59481
-2.66043
-2.76056
-2.75953
-2.75779
-2.75552
-2.75272
-2.74933
-2.74533
-2.74094
-2.73608
-2.73088
-2.72549
-2.72006
-2.71484
-2.71014
-2.70636
-2.70404
-2.70388
-2.70681
-2.71412
-2.72749
-2.74908
-2.78159
-2.82809
-2.89104
-2.9463
-2.94435
-2.94222
-2.9397
-2.93672
-2.93331
-2.92948
-2.92534
-2.92098
-2.91652
-2.91212
-2.90799
-2.90441
-2.90174
-2.90041
-2.90097
-2.9041
-2.91067
-2.92164
-2.93804
-2.96074
-2.98998
-3.02431
-3.13364
-3.1314
-3.12942
-3.12717
-3.12456
-3.12161
-3.11836
-3.11487
-3.11123
-3.10756
-3.104
-3.10073
-3.098
-3.09608
-3.09532
-3.09612
-3.09891
-3.1042
-3.11241
-3.12381
-3.13821
-3.15451
-3.16992
-3.32119
-3.31877
-3.317
-3.31501
-3.31276
-3.31025
-3.30751
-3.30459
-3.30157
-3.29856
-3.29567
-3.29308
-3.29097
-3.28956
-3.2891
-3.28985
-3.29208
-3.29602
-3.30176
-3.30913
-3.3175
-3.32538
-3.32992
-3.5086
-3.50635
-3.50484
-3.50316
-3.50126
-3.49915
-3.49686
-3.49444
-3.49195
-3.48949
-3.48716
-3.48509
-3.48343
-3.48236
-3.48204
-3.48265
-3.48432
-3.48712
-3.49096
-3.49554
-3.50015
-3.5034
-3.50296
-3.69575
-3.69406
-3.69289
-3.69154
-3.68999
-3.68826
-3.68638
-3.68439
-3.68235
-3.68035
-3.67847
-3.67681
-3.6755
-3.67467
-3.67442
-3.67488
-3.67611
-3.67809
-3.68071
-3.68366
-3.68635
-3.68781
-3.68646
-3.88279
-3.88192
-3.88113
-3.88013
-3.87893
-3.87755
-3.87603
-3.87442
-3.87276
-3.87114
-3.86962
-3.8683
-3.86727
-3.86662
-3.86644
-3.86682
-3.86778
-3.86929
-3.87126
-3.87349
-3.87563
-3.87714
-3.87727
-4.07008
-4.06999
-4.0696
-4.06894
-4.06805
-4.06699
-4.06579
-4.0645
-4.06317
-4.06187
-4.06066
-4.05961
-4.05882
-4.05833
-4.05824
-4.0586