/*--------------------------------*- C++ -*----------------------------------*\
| =========                 |                                                 |
| \\      /  F ield         | OpenFOAM: The Open Source CFD Toolbox           |
|  \\    /   O peration     | Version:  v1912                                 |
|   \\  /    A nd           | Website:  www.openfoam.com                      |
|    \\/     M anipulation  |                                                 |
\*---------------------------------------------------------------------------*/
FoamFile
{
    version     2.0;
    format      ascii;
    class       volScalarField;
    location    "0.55";
    object      p_rgh;
}
// * * * * * * * * * * * * * * * * * * * * * * * * * * * * * * * * * * * * * //

dimensions      [1 -1 -2 0 0 0 0];


internalField   nonuniform List<scalar> 
9072
(
572.657
571.376
577.409
586.713
593.597
598.451
605.01
614.649
627.03
641.93
659.357
679.336
701.79
726.496
753.182
781.512
810.107
832.937
842.769
857.78
861.821
858.628
907.954
570.713
569.778
575.632
585.153
592.563
597.674
604.409
614.122
626.568
641.497
658.921
678.905
701.368
726.05
752.561
780.339
808.155
832.448
846.609
853.399
869.783
826.345
871.038
567.661
566.584
571.573
581.711
590.446
596.09
603.171
613.081
625.58
640.485
657.89
677.905
700.45
725.203
751.653
779.024
805.878
829.559
846.427
859.594
889.459
792.521
838.358
564.452
562.136
565.34
576.557
587.896
594.149
601.544
611.611
624.096
638.913
656.269
676.334
699.025
723.951
750.484
777.732
804.326
828.228
847.559
865.034
885.809
805.975
841.98
562.687
556.759
555.937
568.341
585.359
592.188
599.687
609.772
622.131
636.773
654.039
674.173
697.09
722.313
749.104
776.499
803.232
827.751
848.873
867.595
883.117
864.799
887.727
564.689
551.041
543.327
556.561
582.857
590.186
597.532
607.521
619.645
634.024
651.154
671.381
694.624
720.298
747.545
775.353
802.551
827.911
850.571
870.708
887.132
891.12
921.467
572.185
547.962
533.226
548.115
580.507
587.686
594.916
604.756
616.558
630.579
647.538
667.89
691.594
717.903
745.826
774.298
802.226
828.593
852.699
874.396
893.11
908.368
940.89
584.285
551.993
531.118
546.223
575.913
583.652
591.65
601.375
612.782
626.357
643.121
663.589
687.926
715.098
743.95
773.336
802.217
829.721
855.262
878.597
899.557
919.288
948.592
430.394
434.832
442.896
543.817
908.538
903.483
472.909
868.302
525.807
197.706
160.241
154.422
155.998
186.379
196.83
214.396
229.236
519.747
745.626
414.576
412.831
414.402
472.114
853.155
772.974
158.865
411.95
192.531
149.24
156.582
155.667
152.121
152.269
154.855
158.077
160.025
213.002
634.537
414.01
412.512
414.366
415.668
729.608
562.523
99.2149
108.463
152.79
145.051
140.422
139.692
143.84
149.775
154.128
158.048
159.438
159.114
392.725
414.496
412.93
414.275
478.313
631.602
350.259
162.919
137.586
145.05
141.127
138.806
138.574
143.349
149.368
153.619
157.711
158.776
152.308
241.84
414.62
413.739
414.18
622.255
598.558
233.185
151.533
141.429
140.575
138.3
136.323
136.241
141.686
148.123
152.207
155.961
157.651
151.853
186.176
414.598
414.09
566.158
650.635
619.118
196.204
147.203
141.523
139.14
136.532
134.479
133.997
140.08
147.134
151.318
154.403
156.267
151.377
157.094
414.614
414.5
738.007
664.672
538.74
159.081
145.295
141.027
138.886
135.379
132.461
131.814
138.365
146.073
150.29
153.687
154.611
150.199
148.588
581.1
779.861
760.447
675.133
280.409
139.342
143.332
140.581
138.812
134.395
130.825
130.384
137.053
145.082
149.176
151.53
151.318
149.116
151.52
572.112
567.788
443.876
321.244
552.196
575.637
586.145
596.301
607.156
620.177
636.286
656.685
682.292
710.922
741.362
772.209
802.58
831.708
859.109
884.529
908.015
929.773
945.657
2.11342
2.32474
4.32134
4.82696
2.28866
6.62156
27.9865
54.4292
88.6977
147.947
252.19
422.717
624.684
701.558
737.078
770.705
804.067
836.498
866.927
895.613
922.555
948.252
973.173
2.09987
2.11856
2.0643
2.097
2.01876
1.9014
1.85348
1.88867
2.01184
2.0737
2.1246
2.1626
2.15336
16.576
149.95
533.245
805.504
843.908
875.49
907.988
937.591
966.284
995.373
2.05218
2.06739
2.02901
2.03061
2.00448
1.95859
1.93089
1.9436
1.98456
2.0977
2.09795
2.12729
2.15974
2.18901
2.23998
2.26649
4.12479
114.903
492.963
916.28
950.845
979.77
1012.78
2.00957
2.02431
2.00895
1.9994
1.98153
1.96222
1.953
1.96249
1.98786
2.02203
2.05994
2.09551
2.13069
2.16538
2.20388
2.25701
2.28202
2.28922
2.37956
2.4422
17.0656
313.808
867.886
1.97144
1.9851
1.97744
1.96977
1.96041
1.95347
1.95313
1.96333
1.98358
2.01127
2.04401
2.07746
2.11229
2.14927
2.18368
2.2208
2.25931
2.30466
2.36929
2.40636
2.42807
2.52213
2.58666
1.93453
1.9489
1.94458
1.9406
1.93751
1.93713
1.94181
1.95335
1.97189
1.9965
2.02549
2.05732
2.09092
2.12649
2.16409
2.20394
2.24639
2.29672
2.35191
2.40556
2.45842
2.52265
2.58628
1.89618
1.91299
1.91128
1.91064
1.91165
1.91539
1.9232
1.93601
1.95416
1.97724
2.00445
2.03493
2.06811
2.10394
2.14256
2.18437
2.23004
2.28053
2.33538
2.39396
2.45414
2.50897
2.56185
1.8546
1.87569
1.87683
1.87902
1.88295
1.88941
1.89926
1.91315
1.93135
1.95376
1.98003
2.00973
2.04259
2.07857
2.11782
2.16065
2.20746
2.25851
2.31361
2.37197
2.42739
2.47719
2.51484
1.81362
1.83677
1.84122
1.84569
1.85166
1.85993
1.87116
1.88582
1.9042
1.92631
1.95205
1.98126
2.01385
2.04984
2.08934
2.13257
2.17969
2.23061
2.28463
2.34004
2.38767
2.55371
2.94004
1.77796
1.79915
1.80509
1.81084
1.81805
1.82744
1.83952
1.85469
1.87318
1.8951
1.92047
1.94929
1.98158
2.0174
2.05687
2.10013
2.14717
2.19768
2.25052
2.30299
2.3462
2.4549
3.34602
1.74285
1.7631
1.76842
1.77446
1.78224
1.79221
1.80475
1.82014
1.83862
1.86031
1.88531
1.91371
1.94559
1.98107
2.02028
2.06333
2.1102
2.16056
2.21336
2.26649
2.31462
2.35795
2.38737
1.705
1.72575
1.73039
1.73628
1.7442
1.75438
1.76706
1.78245
1.80074
1.8221
1.84664
1.87449
1.9058
1.94072
1.97942
2.02207
2.0687
2.11918
2.17294
2.22893
2.28533
2.34177
2.39528
1.66452
1.68624
1.69026
1.69599
1.70386
1.71401
1.7266
1.74178
1.75972
1.78058
1.80451
1.83164
1.86216
1.89627
1.93418
1.97611
2.02225
2.07272
2.12746
2.18624
2.24884
2.31562
2.38588
1.6215
1.64427
1.64793
1.65348
1.6612
1.67116
1.68348
1.69828
1.71571
1.7359
1.75902
1.78522
1.81469
1.84766
1.8844
1.92519
1.97034
2.02022
2.07515
2.13546
2.20163
2.27453
2.3552
1.57609
1.60006
1.60338
1.60876
1.61625
1.6259
1.63781
1.65208
1.66883
1.68819
1.71029
1.73532
1.76345
1.79493
1.83004
1.86912
1.91255
1.9609
2.01476
2.07481
2.142
2.21772
2.30397
1.52847
1.55366
1.55674
1.56189
1.56907
1.57832
1.58971
1.60333
1.61925
1.63759
1.65849
1.6821
1.70859
1.73818
1.77116
1.80789
1.84884
1.89449
1.94559
2.00321
2.06868
2.14397
2.23217
1.47877
1.50503
1.50802
1.51293
1.51977
1.52856
1.53934
1.55218
1.56715
1.58433
1.60383
1.62578
1.65033
1.67766
1.70799
1.74165
1.77903
1.82065
1.86727
1.92
1.98048
2.05129
2.13674
1.42712
1.4544
1.45735
1.46203
1.46849
1.47675
1.48685
1.49883
1.51273
1.52862
1.54658
1.56667
1.58902
1.61372
1.64092
1.67084
1.70373
1.73999
1.78017
1.82519
1.87662
1.93726
2.01229
1.37369
1.40194
1.40486
1.4093
1.41537
1.42307
1.43243
1.44347
1.45624
1.47075
1.48703
1.50512
1.52505
1.54685
1.57055
1.59619
1.62382
1.65352
1.68541
1.71983
1.75755
1.80043
1.85271
1.31879
1.34785
1.35073
1.35493
1.36057
1.36769
1.37627
1.38635
1.39793
1.41099
1.42554
1.44153
1.45892
1.47766
1.49764
1.51868
1.54055
1.56288
1.58516
1.60662
1.62633
1.64318
1.65631
1.26273
1.29239
1.29513
1.29908
1.30429
1.31079
1.31859
1.32769
1.33806
1.34966
1.36244
1.37632
1.39117
1.40683
1.42306
1.43947
1.4555
1.4703
1.48255
1.49016
1.48972
1.4753
1.43602
1.20563
1.23581
1.2382
1.24189
1.24668
1.25257
1.25959
1.2677
1.27687
1.28703
1.2981
1.30992
1.32232
1.33503
1.34769
1.35973
1.37032
1.37817
1.38125
1.37628
1.35756
1.31456
1.22642
1.14752
1.17795
1.18026
1.18358
1.18791
1.19321
1.19946
1.20662
1.21463
1.22342
1.23285
1.24275
1.25288
1.26291
1.27237
1.28059
1.28655
1.28871
1.28467
1.27053
1.23964
1.18003
1.06852
1.08832
1.1191
1.12123
1.12424
1.12813
1.13286
1.13838
1.14464
1.15157
1.15907
1.167
1.17516
1.18328
1.19098
1.19777
1.2029
1.20533
1.20349
1.19498
1.17613
1.14097
1.07951
0.974432
1.02816
1.05935
1.06128
1.06401
1.06749
1.07168
1.07652
1.08194
1.08787
1.09421
1.1008
1.10745
1.11385
1.11964
1.12432
1.12718
1.12725
1.12312
1.11279
1.09336
1.06053
1.00798
0.926558
0.967155
0.998777
1.00054
1.00302
1.00613
1.00981
1.01402
1.01867
1.02371
1.02903
1.03446
1.03982
1.04483
1.04912
1.05224
1.05359
1.05234
1.0474
1.0373
1.02013
0.993448
0.954319
0.899754
0.905459
0.937482
0.939129
0.941402
0.944156
0.947354
0.950982
0.954978
0.959238
0.963665
0.96812
0.972418
0.976312
0.979486
0.981547
0.982006
0.980257
0.975524
0.966882
0.953323
0.93386
0.907843
0.875685
0.843325
0.875599
0.877197
0.879277
0.881709
0.884486
0.887593
0.890976
0.894554
0.898223
0.90186
0.905302
0.908336
0.9107
0.912082
0.912115
0.91038
0.906401
0.899699
0.889904
0.876941
0.861369
0.845016
0.781069
0.81332
0.814911
0.816772
0.818888
0.821269
0.823903
0.826742
0.829718
0.832756
0.835721
0.838481
0.84086
0.842652
0.843619
0.843506
0.842044
0.83898
0.834145
0.827548
0.819552
0.811168
0.804497
0.718923
0.750884
0.752397
0.75398
0.755769
0.757773
0.759976
0.762339
0.764805
0.767293
0.769705
0.771926
0.77381
0.775196
0.775911
0.775786
0.774661
0.772425
0.769084
0.764814
0.760099
0.755945
0.754179
0.656906
0.688459
0.68971
0.690962
0.69241
0.69405
0.695861
0.697806
0.699829
0.701858
0.703815
0.705602
0.707099
0.708185
0.708739
0.708643
0.707803
0.706194
0.703865
0.701031
0.698115
0.695882
0.695598
0.594819
0.626045
0.626851
0.627736
0.62884
0.630134
0.631589
0.633164
0.634808
0.636454
0.638035
0.639467
0.640654
0.641504
0.641928
0.64184
0.641175
0.639929
0.638167
0.636036
0.633799
0.631891
0.630968
0.532382
0.563487
0.563766
0.56429
0.56507
0.56605
0.567188
0.568441
0.569758
0.571081
0.572347
0.573484
0.574413
0.575062
0.57536
0.575234
0.574629
0.573529
0.571965
0.569995
0.567703
0.565207
0.562646
0.46935
0.500502
0.50038
0.500597
0.501099
0.501811
0.502675
0.503649
0.504686
0.505733
0.506731
0.507617
0.508325
0.50879
0.508952
0.508744
0.508101
0.506982
0.505365
0.503218
0.500468
0.496989
0.492575
0.405668
0.436994
0.436648
0.436648
0.436932
0.437424
0.43806
0.438798
0.439595
0.440404
0.441171
0.441841
0.442353
0.442647
0.442665
0.442338
0.441592
0.440351
0.438544
0.436054
0.432685
0.428139
0.421995
0.341417
0.372982
0.372555
0.37243
0.372561
0.372882
0.373336
0.373881
0.374475
0.375076
0.375642
0.376122
0.376461
0.376593
0.376462
0.376
0.375117
0.373713
0.37167
0.368803
0.36482
0.359294
0.351631
0.276738
0.308565
0.308145
0.307965
0.308003
0.308201
0.308512
0.3089
0.309325
0.309748
0.310137
0.31045
0.310629
0.310612
0.31034
0.309745
0.308728
0.307165
0.304903
0.301714
0.297243
0.290971
0.282146
0.211783
0.243853
0.243484
0.243296
0.243285
0.243399
0.2436
0.243858
0.24414
0.244413
0.24465
0.244812
0.244848
0.2447
0.244309
0.243607
0.242483
0.240801
0.238388
0.235
0.23027
0.223638
0.214278
0.146649
0.178918
0.178628
0.178462
0.178432
0.178491
0.178608
0.17876
0.17892
0.179062
0.179167
0.179197
0.179106
0.178847
0.178363
0.177581
0.17639
0.17465
0.172184
0.168754
0.16402
0.157455
0.148302
0.0814184
0.113801
0.113599
0.113484
0.113458
0.113481
0.113534
0.113599
0.113655
0.113684
0.113672
0.113587
0.113386
0.113031
0.112468
0.111624
0.110402
0.108667
0.106247
0.102922
0.0983964
0.0922135
0.0837424
0.0164757
0.0489459
0.0488325
0.048757
0.0487224
0.048705
0.0486925
0.0486748
0.0486375
0.0485676
0.0484537
0.0482704
0.0479847
0.0475613
0.0469518
0.0460939
0.0449035
0.0432642
0.041018
0.0379607
0.0338229
0.028224
0.0206398
846.049
886.727
890.04
874.702
986.379
989.192
992.791
993.385
1020.36
1032.72
1043.33
1050.42
1042.47
1059.96
1077.14
1092.36
1023.5
1075.85
1099.35
1124.58
2.69351
45.5667
223.049
787.339
2.61974
2.6791
2.71839
2.71101
2.65944
2.71155
2.76654
2.81957
2.52451
2.5831
2.63219
2.66233
2.47786
2.39532
2.41171
2.47664
3.33923
2.93714
2.3608
2.40182
2.46098
3.43826
3.45135
2.98688
2.4317
2.44919
2.48807
2.55068
2.45047
2.48931
2.53493
2.5893
2.43419
2.48181
2.53422
2.59176
2.39073
2.44332
2.50051
2.56227
2.32362
2.38011
2.44206
2.50941
2.22926
2.28845
2.35521
2.42974
2.09806
2.15605
2.22482
2.30596
1.91499
1.96056
2.01915
2.09553
1.66587
1.67409
1.68743
1.7124
1.36112
1.29604
1.19945
1.05299
1.07257
0.93307
0.719684
0.377184
0.889079
0.734582
0.515137
0.1896
0.821332
0.701847
0.546743
0.344401
0.8215
0.747594
0.660613
0.558954
0.838114
0.799515
0.75933
0.719142
0.844974
0.828721
0.814881
0.805033
0.833427
0.829684
0.829304
0.833436
0.803184
0.805486
0.810996
0.820557
0.757012
0.761192
0.767963
0.777931
0.69851
0.70191
0.707021
0.714208
0.631676
0.63289
0.63482
0.637577
0.560395
0.559127
0.557742
0.556112
0.487613
0.484314
0.480446
0.475784
0.4148
0.409981
0.404388
0.397787
0.342499
0.336345
0.329134
0.320503
0.271453
0.264143
0.255461
0.245037
0.202871
0.194992
0.185578
0.17432
0.137392
0.130017
0.121431
0.111589
0.073874
0.0673821
0.0599944
0.0517077
0.0118415
0.00602929
-0.000667864
-0.00839365
850.968
856.635
800.345
691.456
133.448
144.094
142.733
140.507
138.834
133.966
129.205
130.159
136.452
144.609
147.709
149.523
147.863
148.174
150.995
986.86
946.364
867.856
255.005
172.296
147.817
144.584
141.842
139.33
135.272
132.149
133.659
139.47
144.756
150.917
146.47
144.949
147.456
150.87
1051.65
1016.96
623.895
155.39
155.387
148.99
146.162
143.734
140.598
137.195
135.446
138.209
142.911
143.651
152.947
147.822
146.038
147.533
184.216
1104.93
1082.09
155.128
154.798
154.536
156.967
147.553
145.646
142.352
137.99
135.419
139.819
143.288
145.714
151.581
149.506
148.513
148.029
986.257
1156.03
1025.19
155.271
155.128
155.208
163.704
165.092
160.438
147.37
137.835
137.268
141.006
145.631
159.555
151.603
149.997
149.058
148.281
1097.3
1204.18
1150.55
155.594
155.489
156.029
157.029
173.76
184.235
164.185
131.832
139.349
147.374
151.289
165.505
151.97
150.155
149.372
149.359
1109.41
416.597
1293.75
155.723
155.336
167.601
157.807
369.731
1351.01
1354.1
488.68
143.091
149.437
152.828
166.956
152.035
150.701
150.004
1110.68
1589.35
2.87381
826.447
1248.57
154.424
156.114
264.476
1446.48
1423.7
1456.37
1497.58
166.7
155.094
152.496
165.031
155.728
151.336
1096.25
1677.53
1934.1
2.75147
2.96173
691.927
1361.14
600.156
1139.49
1509.75
888.224
1169.82
1577.48
764.23
152.728
152.505
152.317
157.583
181.684
1675.35
1908.01
2197.13
2.6114
2.97042
3.05418
29.7924
446.742
386.234
6.01214
4.52543
4.27089
976.18
1655.78
152.413
152.214
152.926
153.582
153.905
930.488
2117.3
2371.92
2.52894
2.84607
3.78017
3.35493
4.09728
4.70326
3.88073
4.09448
4.05951
3.88988
1306.9
1540.44
152.286
153.246
154.189
154.355
1142.74
1527.89
2385.22
3.42228
3.80181
3.93059
3.33644
3.5706
4.28288
3.7836
3.964
3.92122
3.7672
3.48488
946.045
1412.62
590.36
313.258
1419.82
1037.76
713.998
2353.29
2.66258
2.90753
3.13275
3.26863
3.34869
3.47281
3.6439
3.75672
3.76174
3.68243
3.32884
3.93478
81.4096
1066.98
1211.06
456.703
340.178
1061.48
2373.61
2.67231
2.86754
3.06003
3.20306
3.31318
3.4235
3.52718
3.59232
3.59174
3.50139
3.24384
2.97947
0.0886487
19.5363
857.617
1683.29
337.483
1990.15
2430.89
2.67567
2.84843
3.01909
3.1632
3.27875
3.37062
3.43658
3.46796
3.44931
3.35707
3.16636
2.90444
1.8988
3.69895
6.84496
725.206
2220.76
2414.35
2513.69
2.65063
2.82403
2.99644
3.14587
3.26049
3.33557
3.37292
3.37676
3.34341
3.25641
3.09793
2.79281
2.14358
3.28085
5.58139
577.055
2212.83
2341.78
2673.96
2.60629
2.79766
2.98904
3.15356
3.26998
3.32675
3.3323
3.30504
3.25642
3.1854
3.11243
3.13608
3.20346
6.74027
503.515
2465.87
2163.3
2231.25
2813.38
2.53991
2.76849
2.99759
3.19179
3.31801
3.34848
3.3042
3.22854
3.14996
3.08413
3.07123
3.25738
4.18917
2311.33
2579.73
2600.9
2683
2797.72
2912.17
2.43307
2.73088
3.02043
3.26057
3.41777
3.39774
3.26318
3.10749
2.966
2.85869
2.7691
3.28104
252.185
2587.71
2724.5
2759.16
2819.97
2673.35
1341.17
2.22555
2.65687
3.04742
3.33243
3.57903
3.44114
3.14872
2.8844
2.64271
2.38821
1.86472
26.76
27.0309
-1.53729
1166.79
2826.56
2280.89
1235.56
1810.04
1.73135
2.37254
3.09091
4.4986
10.4441
3.28123
2.8149
2.50009
2.17427
1.66468
0.165746
18.5417
-1.14965
-1.30859
-1.09163
-0.434778
0.982889
356.297
2228.82
0.523481
29.0239
23.5943
25.2227
24.9413
12.3662
2.02254
1.95087
1.68409
1.13803
-0.0451492
3.14705
-0.830183
-1.26531
0.148649
0.944037
1.11791
1.11217
793.977
-0.47797
29.4513
14.6942
1.89067
1.44027
23.4442
0.838022
1.39652
1.33274
0.943392
0.21407
-0.636369
11.6186
-1.30422
-1.25041
-0.61202
0.771341
27.2207
1352.73
-0.481501
22.4329
41.9228
8.34959
0.750417
22.5923
0.426501
1.19164
1.23221
0.957764
0.467294
-0.103246
12.451
-1.09824
-0.715596
-0.953037
-0.0233723
12.3129
1039.9
-0.0278595
-0.499746
41.256
42.6143
1.2373
1.22802
1.22594
1.4608
1.37006
1.09831
0.692862
0.162584
1.24809
9.95514
-0.540966
-0.966441
0.187442
0.645248
0.673118
0.405698
0.0894839
0.201238
10.8664
40.3136
2.15777
2.09737
1.84846
1.59379
1.29113
0.945615
0.546859
-0.0633841
5.09934
3.89404
-0.191529
0.630352
0.879421
1.40111
0.670606
0.62652
0.714304
0.990506
1.84066
18.942
2.27353
2.07056
1.76028
1.45351
1.1794
0.945672
0.729338
0.557109
0.624603
1.05101
1.25597
2.08251
65.5127
0.800918
0.838185
0.959383
1.18376
1.44475
6.92038
8.91113
2.16986
1.82882
1.53889
1.34734
1.25039
1.25991
1.3825
1.58935
1.76533
1.79055
29.9353
484.349
0.847364
0.907642
1.0282
1.21115
1.41193
1.54778
10.5008
12.0586
1.75033
1.516
1.43217
1.43939
1.53862
1.71189
1.90727
2.03413
3.596
164.144
863.383
0.840411
0.904149
1.01444
1.17503
1.35551
2.42407
6.02565
12.0222
5.52451
1.35492
1.42934
1.53315
1.68213
1.85416
1.98701
2.10805
4.60792
112.85
16.1703
0.796738
0.852391
0.947461
1.10583
1.38779
2.62578
12.0149
12.4331
4.40662
1.15428
1.33927
1.5507
1.73839
1.90675
2.72429
3.01835
1.56867
2.91551
39.1196
0.727289
0.764279
0.825549
0.937309
1.72987
47.0692
1.04294
11.4189
12.0676
0.868663
1.17462
1.5116
1.74838
1.93719
3.99666
4.0441
2.08238
2.23637
3.26863
0.64247
0.654025
0.661919
0.646371
89.7217
109.327
0.446736
-0.103417
11.8095
0.988931
1.00101
1.44175
1.74131
1.99578
3.97433
2.54641
2.45325
4.71691
3.68533
0.553256
0.541868
0.578812
1.98343
4.07376
110.989
106.263
0.185799
2.72516
2.00652
0.887861
1.36066
1.71408
2.04813
2.38445
2.63853
3.84506
6.13083
3.69794
0.467974
0.443902
0.372761
5.34373
8.82629
0.0463511
114.449
17.5245
0.564047
8.31699
0.808945
1.26197
1.63132
2.00157
2.38313
5.36567
5.01698
3.88715
15.0624
0.387224
0.360764
0.320035
6.12491
6.02447
-0.140353
3.61388
51.2935
0.338754
8.3601
0.965941
1.11944
1.45678
1.76193
1.98747
76.7837
162.85
118.88
181.296
0.306382
0.266113
0.195956
0.408298
-0.0820444
-0.0176488
-0.344477
-0.405717
-0.0202463
8.26358
0.957128
0.917863
1.1776
1.30623
55.8063
164.393
48.1527
14.102
15.1428
0.227763
0.659046
0.396364
0.056362
-0.105691
-0.167446
-0.485738
-0.2553
-0.306249
2.28559
3.08225
0.678348
0.821263
11.9617
98.7671
-0.963658
-0.894394
-1.04323
17.201
0.155728
0.68103
0.0612429
-0.0322797
-0.142671
-0.29665
-0.530133
-0.650574
-0.40427
-0.0999048
8.31252
0.351219
0.390399
88.2442
32.3258
0.594106
-0.785386
-0.922625
5.65094
0.096559
0.0635821
0.00763976
-0.0570291
-0.1611
-0.286687
-0.501119
-0.579009
-0.388858
-0.322049
7.12721
-0.125404
0.072039
146.698
0.852387
-0.546552
-0.722806
-0.932438
-1.07889
0.0394736
0.0148426
-0.0216242
-0.0994375
-0.186896
-0.274114
-0.37985
-0.408463
0.244346
-0.392329
7.00678
-0.75312
17.6702
20.5254
-0.131921
-0.490121
-0.674259
-1.03984
-1.17721
-0.0204182
-0.0486726
-0.0936459
-0.162173
-0.233206
-0.280036
-0.276798
-0.159482
0.360532
-0.460709
-0.256082
-1.35439
79.6512
0.0321631
-0.395435
-0.483537
-0.544608
-0.720704
3.43399
571.254
573.472
582.097
590.617
596.016
601.368
609.45
620.523
634.166
650.325
669.029
690.265
713.878
739.609
767.176
795.986
822.615
840.106
845.366
868.114
864.1
864.806
927.423
569.834
571.842
580.288
589.351
595.13
600.686
608.898
620.024
633.726
649.892
668.593
689.839
713.454
739.106
766.341
794.368
821.087
841.973
843.256
867.615
860.818
817.668
913.858
566.875
568.238
576.196
586.673
593.329
599.289
607.781
619.027
632.73
648.865
667.57
688.876
712.578
738.256
765.29
792.649
818.319
839.197
850.673
877.212
852.307
784.522
894.011
562.87
562.878
569.93
583.132
591.184
597.518
606.255
617.565
631.203
647.259
665.96
687.369
711.243
737.065
764.09
791.223
816.758
838.5
855.599
877.895
871.825
797.965
895.601
558.529
555.63
559.718
578.426
589.177
595.602
604.427
615.679
629.148
645.057
663.744
685.305
709.455
735.567
762.797
790.041
815.867
838.751
858.297
877.038
879.499
864.944
922.226
555.335
546.988
545.202
572.218
587.397
593.472
602.242
613.324
626.523
642.215
660.874
682.651
707.209
733.784
761.449
789.105
815.533
839.596
860.907
879.877
890.771
899.846
951.133
556.989
540.212
534.239
567.698
585.17
590.885
599.572
610.416
623.246
638.653
657.278
679.354
704.487
731.724
760.065
788.396
815.66
840.951
863.847
884.271
900.867
920.834
966.254
567.257
539.418
532.881
564.013
580.389
587.44
596.291
606.865
619.232
634.288
652.884
675.311
701.246
729.373
758.653
787.897
816.184
842.764
867.206
889.406
909.261
931.689
965.334
435.082
438.336
480.194
669.936
994.341
693.286
407.971
876.091
284.383
169.717
154.579
157.161
165.697
196.716
203.78
223.07
292.706
773.298
716.367
411.968
413.911
420.248
607.222
910.756
507.58
-186.444
367.205
158.181
151.506
157.006
154.086
151.592
153.597
156.236
159.682
163.414
438.99
726.341
410.816
413.851
414.085
480.239
751.069
312.837
4.66003
154.756
149.851
142.016
139.525
141.249
146.881
152.22
156.011
159.465
158.008
191.397
832.339
412.14
413.876
414.117
572.126
581.419
259.067
125.076
145.61
143.497
139.9
138.072
140.477
146.484
151.747
155.498
159.244
156.506
158.342
772.575
413.904
413.924
476.659
607.702
463.962
173.048
142.268
141.566
139.38
137.861
135.538
138.469
145.098
150.508
153.67
158.066
155.274
148.418
687.682
414.405
414.15
688.484
623.865
484.27
157.09
143.497
140.575
137.423
136.014
133.419
136.463
143.858
149.674
152.397
156.614
153.641
149.61
492.184
414.521
697.472
702.379
618.994
304.313
149.981
142.912
140.267
136.979
134.06
131.16
134.577
142.48
148.723
151.144
155.37
151.983
150.521
419.556
482.592
792.019
722.886
601.683
151.928
145.344
142.049
140.096
136.449
132.596
129.581
133.447
141.262
147.708
150.061
152.307
150.127
150.538
358.401
589.144
531.863
292.074
443.08
569.35
581.12
591.188
601.565
613.302
627.844
645.53
668.98
696.362
725.958
756.822
787.509
817.317
845.667
872.051
896.517
919.038
938.909
922.954
39.7523
2.03916
11.1836
2.29821
2.19783
16.7016
40.7197
69.8351
113.686
193.316
329.674
527.73
685.482
719.045
753.859
787.674
820.258
852.076
881.435
909.29
935.518
960.961
984.057
2.09082
2.07827
2.0677
2.06876
1.96104
1.86084
1.86375
1.92876
2.07359
2.09511
2.15275
2.16125
2.23141
57.305
326.373
750.775
824.282
859.906
891.941
922.931
952.075
980.706
1010.05
2.06825
2.05348
2.03742
2.02226
1.98182
1.93948
1.93277
1.9615
2.00948
2.14985
2.10091
2.15122
2.1784
2.21867
2.26885
2.24051
38.9675
279.739
758.291
934.886
965.331
995.945
1029.33
2.02734
2.01896
2.00487
1.99039
1.97123
1.95562
1.95534
1.97365
2.00401
2.04111
2.07795
2.11291
2.14812
2.18445
2.22745
2.25841
2.26541
2.34084
2.38212
2.53185
137.362
597.156
974.172
1.98775
1.98144
1.97327
1.9645
1.95646
1.95213
1.95684
1.97237
1.99653
2.02734
2.06086
2.09439
2.13144
2.16546
2.20278
2.23871
2.28786
2.33476
2.38768
2.4345
2.46091
2.57591
2.59789
1.95088
1.94665
1.9424
1.93877
1.93683
1.9387
1.94667
1.9618
1.98347
2.01053
2.04122
2.07388
2.10845
2.14502
2.1837
2.22483
2.2729
2.32284
2.37961
2.43396
2.48628
2.56076
2.60353
1.91398
1.91194
1.91077
1.91088
1.9131
1.91871
1.92892
1.94444
1.96513
1.99039
2.01934
2.05119
2.08569
2.12288
2.16304
2.20666
2.25488
2.30731
2.36433
2.42451
2.48163
2.53651
2.62012
1.87532
1.87608
1.87774
1.88072
1.88581
1.89386
1.90567
1.92171
1.94205
1.96644
1.99447
2.02577
2.06018
2.09777
2.13876
2.18353
2.23246
2.28554
2.34246
2.40172
2.45045
2.50219
2.51956
1.83308
1.83904
1.84332
1.84843
1.85546
1.86514
1.87804
1.89454
1.91479
1.93873
1.96623
1.99714
2.03142
2.06914
2.11048
2.15564
2.20469
2.25731
2.3123
2.36604
2.41118
2.86573
2.56881
1.79459
1.80233
1.80785
1.81421
1.82243
1.83311
1.8467
1.86351
1.88371
1.90735
1.93445
1.965
1.99904
2.03667
2.07802
2.12319
2.17204
2.22393
2.27705
2.32627
2.36513
3.09627
3.35064
1.76141
1.76595
1.77128
1.7781
1.78692
1.79813
1.81207
1.82899
1.84906
1.87239
1.89908
1.92921
1.96287
2.00019
2.04132
2.0863
2.13499
2.18676
2.24008
2.29141
2.3371
2.37491
2.39437
1.72566
1.72834
1.7331
1.73997
1.74899
1.76039
1.7744
1.79122
1.81103
1.83396
1.86014
1.88971
1.9228
1.95958
2.00025
2.04489
2.09348
2.1457
2.20076
2.25715
2.31358
2.36932
2.41776
1.68594
1.68829
1.69287
1.69965
1.70864
1.71999
1.73385
1.7504
1.76978
1.79215
1.81766
1.84647
1.87875
1.91473
1.95463
1.99865
2.04695
2.09957
2.15637
2.21705
2.2817
2.35043
2.42224
1.64399
1.64605
1.65044
1.65707
1.6659
1.67702
1.69056
1.70665
1.72545
1.74709
1.77172
1.79953
1.83072
1.86554
1.90427
1.9472
1.99467
2.04703
2.10461
2.16776
2.23718
2.3138
2.39927
1.59972
1.6015
1.60581
1.61224
1.6208
1.63157
1.64464
1.66014
1.67817
1.69889
1.72243
1.74898
1.77876
1.81201
1.84906
1.89026
1.93605
1.98711
2.04396
2.10743
2.17869
2.25934
2.3522
1.55299
1.55493
1.55906
1.56522
1.57343
1.58375
1.59624
1.61099
1.62811
1.64772
1.66995
1.69497
1.72298
1.75423
1.78904
1.8278
1.87114
1.91929
1.97352
2.03486
2.10494
2.18619
2.28266
1.50427
1.50627
1.51024
1.51611
1.52392
1.53369
1.5455
1.55939
1.57545
1.59378
1.61449
1.63772
1.66364
1.69243
1.72438
1.75984
1.79927
1.84328
1.89279
1.94914
2.01438
2.0918
2.18722
1.45355
1.45565
1.45947
1.46503
1.47239
1.48157
1.4926
1.50553
1.52043
1.53734
1.55635
1.57756
1.60106
1.62699
1.65552
1.68689
1.72141
1.75954
1.802
1.84997
1.90554
1.97249
2.05824
1.40098
1.40321
1.40688
1.41213
1.41901
1.42754
1.43774
1.44964
1.46328
1.47867
1.49585
1.51485
1.53572
1.55846
1.58313
1.60975
1.6384
1.66918
1.70227
1.7382
1.77816
1.82498
1.88525
1.3468
1.34914
1.35265
1.35757
1.36395
1.37179
1.38112
1.39196
1.40428
1.41808
1.43335
1.45005
1.46813
1.48751
1.50804
1.52953
1.55169
1.57407
1.59604
1.61677
1.63517
1.65028
1.66126
1.29132
1.29361
1.29694
1.30152
1.30738
1.31453
1.32298
1.33272
1.34371
1.35591
1.36925
1.38363
1.39891
1.41489
1.43127
1.44757
1.46312
1.47685
1.4871
1.49124
1.48477
1.45984
1.39978
1.23467
1.23692
1.23991
1.24415
1.24949
1.25594
1.26351
1.27216
1.28183
1.29246
1.30393
1.31606
1.32866
1.3414
1.35383
1.36528
1.37469
1.38047
1.38005
1.36914
1.34006
1.27809
1.15256
1.17697
1.17899
1.18179
1.18562
1.19044
1.19622
1.20293
1.21053
1.21894
1.22806
1.23776
1.2478
1.25793
1.26775
1.27669
1.28394
1.28823
1.28766
1.27919
1.25775
1.21451
1.13292
0.980527
1.11827
1.12003
1.12263
1.12608
1.1304
1.13553
1.14142
1.14802
1.15525
1.16299
1.17107
1.17924
1.18721
1.19453
1.2006
1.20454
1.20507
1.20026
1.18716
1.16109
1.11438
1.03396
0.896922
1.05847
1.06014
1.06255
1.06566
1.0695
1.07403
1.07916
1.08484
1.09099
1.09748
1.10413
1.1107
1.11685
1.12216
1.12603
1.12764
1.12582
1.11889
1.10444
1.07895
1.03722
0.971603
0.871465
0.997694
0.999431
1.0017
1.0045
1.0079
1.01189
1.01629
1.02115
1.02634
1.03174
1.03717
1.04239
1.04709
1.05086
1.05318
1.05335
1.05042
1.0431
1.02974
1.00815
0.975637
0.929139
0.866181
0.936116
0.938066
0.940202
0.942722
0.945701
0.949109
0.952944
0.95708
0.961438
0.965898
0.970301
0.974434
0.978013
0.980685
0.982011
0.981451
0.978318
0.971754
0.960782
0.944384
0.921684
0.892438
0.858108
0.873973
0.876216
0.878192
0.88045
0.883054
0.886001
0.889255
0.892747
0.896383
0.900055
0.903617
0.906885
0.90962
0.911536
0.912292
0.911497
0.908703
0.903419
0.895203
0.883805
0.869407
0.853106
0.837697
0.811624
0.814036
0.815811
0.817798
0.820046
0.822557
0.8253
0.828219
0.83124
0.834254
0.837136
0.83973
0.841844
0.843254
0.843714
0.84296
0.840726
0.836789
0.831055
0.823681
0.81531
0.807431
0.802892
0.749406
0.751659
0.753164
0.754849
0.756745
0.758852
0.761141
0.763563
0.766051
0.768514
0.770848
0.772919
0.774576
0.775648
0.775963
0.775356
0.773684
0.770886
0.767044
0.762465
0.75786
0.754608
0.755042
0.687454
0.689145
0.69031
0.691661
0.693207
0.694936
0.69682
0.698812
0.700847
0.70285
0.704736
0.706394
0.7077
0.708535
0.708778
0.708318
0.707091
0.705112
0.702491
0.699545
0.696847
0.695394
0.696738
0.62561
0.62648
0.627263
0.628264
0.629465
0.630843
0.632364
0.633981
0.635634
0.637256
0.638775
0.640096
0.641125
0.641774
0.641952
0.641581
0.640621
0.639105
0.637134
0.634908
0.632768
0.631256
0.63113
0.563509
0.563606
0.56399
0.564652
0.565538
0.5666
0.567801
0.569093
0.570421
0.571724
0.572936
0.573978
0.574775
0.575259
0.575354
0.574993
0.574139
0.572801
0.571026
0.568883
0.566471
0.563928
0.561365
0.500859
0.500389
0.500445
0.500817
0.501432
0.502227
0.50315
0.504161
0.505211
0.506241
0.507192
0.507998
0.508591
0.508912
0.508898
0.50848
0.507602
0.506237
0.504361
0.501925
0.49883
0.494918
0.489908
0.437526
0.43676
0.436605
0.436759
0.437156
0.437726
0.438418
0.439191
0.44
0.440795
0.441521
0.44212
0.442531
0.442695
0.44255
0.442023
0.441038
0.439524
0.437393
0.434495
0.430582
0.4253
0.418147
0.373523
0.372709
0.372453
0.372467
0.372701
0.373095
0.373599
0.374174
0.374777
0.375365
0.375896
0.376314
0.376557
0.376565
0.376278
0.375616
0.374485
0.37278
0.370354
0.366975
0.362282
0.355775
0.346755
0.309022
0.308302
0.308019
0.307961
0.308085
0.308344
0.308699
0.309111
0.309538
0.309949
0.310306
0.310561
0.31065
0.310511
0.310087
0.309295
0.308022
0.306132
0.303444
0.299667
0.294373
0.286937
0.276454
0.244189
0.243618
0.243356
0.243271
0.243328
0.24349
0.243724
0.243999
0.244279
0.244537
0.244743
0.244851
0.244801
0.244538
0.244001
0.243104
0.241721
0.239699
0.236836
0.232833
0.227236
0.219364
0.208219
0.179144
0.178716
0.178514
0.178434
0.178453
0.178544
0.178682
0.178841
0.178994
0.179121
0.179194
0.17917
0.179001
0.178636
0.178016
0.177044
0.175598
0.173522
0.170608
0.166578
0.161007
0.153257
0.142468
0.113906
0.113629
0.113516
0.113463
0.113465
0.113505
0.113567
0.11363
0.113673
0.113684
0.113641
0.113503
0.11323
0.112779
0.112086
0.111068
0.109609
0.107556
0.104715
0.100834
0.0955472
0.0883075
0.0784275
0.0488809
0.0488291
0.0487811
0.0487364
0.0487121
0.0486982
0.048685