/*--------------------------------*- C++ -*----------------------------------*\
| =========                 |                                                 |
| \\      /  F ield         | OpenFOAM: The Open Source CFD Toolbox           |
|  \\    /   O peration     | Version:  v1912                                 |
|   \\  /    A nd           | Website:  www.openfoam.com                      |
|    \\/     M anipulation  |                                                 |
\*---------------------------------------------------------------------------*/
FoamFile
{
    version     2.0;
    format      ascii;
    class       surfaceScalarField;
    location    "0.55";
    object      phi;
}
// * * * * * * * * * * * * * * * * * * * * * * * * * * * * * * * * * * * * * //

dimensions      [0 3 -1 0 0 0 0];
oriented        oriented;


internalField   nonuniform List<scalar> 
17936
(
-1.39748e-06
3.22579e-06
-1.82831e-06
2.54336e-06
-2.71195e-06
1.6859e-07
1.95866e-06
-6.36718e-07
-1.32194e-06
-9.7603e-07
2.67513e-06
-1.69911e-06
-4.2861e-06
5.67517e-06
-1.38907e-06
-6.76874e-06
7.55277e-06
-7.84035e-07
-8.05449e-06
8.32106e-06
-2.6657e-07
-8.4027e-06
8.34512e-06
5.75855e-08
-8.19514e-06
8.00299e-06
1.92146e-07
-7.80242e-06
7.60872e-06
1.93694e-07
-7.42625e-06
7.25389e-06
1.72362e-07
-7.08733e-06
6.91989e-06
1.67433e-07
-6.74275e-06
6.54355e-06
1.99198e-07
-6.30504e-06
6.00196e-06
3.03079e-07
-5.5975e-06
5.03765e-06
5.59846e-07
-4.24458e-06
3.11631e-06
1.12827e-06
-1.55989e-06
-4.40424e-07
2.00032e-06
2.73959e-06
-4.57359e-06
1.834e-06
5.68057e-06
-7.27801e-06
1.59744e-06
8.23857e-06
-5.52e-06
-2.71858e-06
1.12401e-06
2.52637e-07
-1.37665e-06
5.29922e-06
-1.28946e-05
7.5954e-06
1.36841e-05
-6.98816e-06
-6.69597e-06
-4.98514e-06
6.63349e-06
-1.64835e-06
2.62904e-06
-2.56506e-06
-1.04574e-07
4.05978e-08
1.72737e-06
-4.20657e-07
2.66789e-06
-3.97461e-06
-1.10961e-06
2.73923e-06
3.39342e-06
-5.02304e-06
-4.30439e-06
5.66541e-06
2.78709e-06
-4.14811e-06
-6.74233e-06
7.52336e-06
1.59376e-06
-2.3748e-06
-8.0419e-06
8.34925e-06
5.84381e-07
-8.91725e-07
-8.49717e-06
8.53162e-06
-2.05268e-08
-1.39209e-08
-8.48979e-06
8.40053e-06
-2.90991e-07
3.80255e-07
-8.28413e-06
8.15523e-06
-3.52655e-07
4.81553e-07
-8.02359e-06
7.89436e-06
-3.28787e-07
4.58025e-07
-7.76856e-06
7.64434e-06
-3.06259e-07
4.30487e-07
-7.51758e-06
7.38326e-06
-3.31811e-07
4.66128e-07
-7.23603e-06
7.07125e-06
-4.42479e-07
6.07267e-07
-6.88684e-06
6.68666e-06
-7.29565e-07
9.29746e-07
-6.48659e-06
6.3206e-06
-1.49706e-06
1.66305e-06
-6.20545e-06
6.05634e-06
-3.25107e-06
3.40018e-06
-5.55334e-06
4.07383e-06
-4.77988e-06
6.25938e-06
-1.43172e-06
-1.65641e-06
-4.02749e-06
7.11561e-06
4.17039e-06
-6.11246e-06
3.89224e-06
-1.95017e-06
7.13223e-06
-9.48462e-06
-4.06875e-07
2.75926e-06
1.32191e-05
-1.49091e-05
-1.18999e-05
1.35898e-05
1.29121e-05
-7.3884e-06
1.33485e-05
-1.88723e-05
-8.17814e-06
9.6093e-06
-1.43116e-06
2.35274e-06
-2.22423e-06
3.9832e-08
-1.68347e-07
1.42707e-06
-3.85066e-07
5.19795e-06
-6.23995e-06
-8.35153e-07
2.27934e-06
6.5577e-06
-8.00188e-06
-3.76011e-06
5.06922e-06
5.47292e-06
-6.78203e-06
-6.09914e-06
6.84163e-06
3.13349e-06
-3.87598e-06
-7.33973e-06
7.65096e-06
1.19639e-06
-1.50762e-06
-7.82891e-06
7.91626e-06
6.86738e-08
-1.56016e-07
-7.94484e-06
7.93691e-06
-4.35976e-07
4.43906e-07
-7.90725e-06
7.86493e-06
-5.72407e-07
6.14727e-07
-7.8146e-06
7.75747e-06
-5.54406e-07
6.11533e-07
-7.6923e-06
7.61647e-06
-5.32478e-07
6.08311e-07
-7.5269e-06
7.42045e-06
-5.88214e-07
6.94668e-07
-7.29431e-06
7.14593e-06
-7.67983e-07
9.16364e-07
-6.9734e-06
6.77632e-06
-1.14529e-06
1.34237e-06
-6.55781e-06
6.3285e-06
-1.89907e-06
2.12837e-06
-6.11743e-06
6.00158e-06
-3.39674e-06
3.5126e-06
-6.134e-06
6.58063e-06
-6.23208e-06
5.78545e-06
-7.11051e-06
7.12431e-06
-8.75806e-06
8.74426e-06
-5.65968e-06
1.9457e-06
-2.11867e-06
5.83265e-06
2.99666e-06
-5.39291e-06
-4.83756e-06
7.23382e-06
5.11774e-06
-3.93418e-06
-1.36668e-05
1.24833e-05
2.98615e-06
-2.74981e-06
2.20619e-05
-2.22982e-05
-1.09022e-05
1.20176e-05
-1.11535e-06
1.99496e-06
-1.88431e-06
3.2865e-07
-4.39297e-07
1.68238e-06
-1.50414e-06
6.92611e-06
-7.10435e-06
7.33968e-07
7.49123e-07
9.42204e-06
-1.09051e-05
-2.56221e-06
4.10491e-06
8.14764e-06
-9.69034e-06
-5.19489e-06
5.91757e-06
4.60593e-06
-5.32861e-06
-6.40282e-06
6.7385e-06
1.83134e-06
-2.16701e-06
-6.97743e-06
7.15441e-06
2.85263e-07
-4.62248e-07
-7.29216e-06
7.40344e-06
-3.94871e-07
2.83593e-07
-7.49421e-06
7.56601e-06
-6.01498e-07
5.297e-07
-7.61779e-06
7.64727e-06
-6.25531e-07
5.96047e-07
-7.65177e-06
7.62914e-06
-6.5676e-07
6.79391e-07
-7.57852e-06
7.50036e-06
-7.85924e-07
8.64086e-07
-7.39634e-06
7.26884e-06
-1.05333e-06
1.18082e-06
-7.12127e-06
6.95859e-06
-1.52063e-06
1.6833e-06
-6.78877e-06
6.62452e-06
-2.32222e-06
2.48647e-06
-6.48441e-06
6.39135e-06
-3.64344e-06
3.73651e-06
-6.37049e-06
6.47879e-06
-5.52026e-06
5.41196e-06
-6.85083e-06
7.58565e-06
-7.93797e-06
7.20315e-06
-8.11975e-06
7.54805e-06
-7.98153e-06
8.55323e-06
-5.28177e-06
3.3859e-06
-9.63762e-06
1.15335e-05
-4.61237e-06
5.78619e-06
-1.0651e-05
9.47714e-06
-4.42719e-06
2.04027e-06
2.09371e-05
-1.85502e-05
-1.28977e-05
1.34653e-05
-5.67527e-07
1.46463e-06
-1.76143e-06
3.77256e-07
-8.0458e-08
2.50578e-06
-3.0712e-06
6.79384e-06
-6.22842e-06
2.67019e-06
-1.13502e-06
1.24941e-05
-1.40292e-05
-1.07084e-06
3.08018e-06
1.15005e-05
-1.35099e-05
-4.40542e-06
5.15069e-06
6.05641e-06
-6.80168e-06
-5.59663e-06
5.92972e-06
2.50683e-06
-2.83991e-06
-6.22301e-06
6.4962e-06
6.88876e-07
-9.6206e-07
-6.75236e-06
6.98926e-06
-1.08424e-07
-1.2847e-07
-7.20148e-06
7.38332e-06
-4.00488e-07
2.1864e-07
-7.52874e-06
7.63316e-06
-5.26163e-07
4.21742e-07
-7.69376e-06
7.71013e-06
-6.79907e-07
6.63535e-07
-7.68459e-06
7.62211e-06
-9.3252e-07
9.95006e-07
-7.52914e-06
7.4127e-06
-1.30149e-06
1.41793e-06
-7.28025e-06
7.14008e-06
-1.83336e-06
1.97353e-06
-7.002e-06
6.87858e-06
-2.62796e-06
2.75137e-06
-6.78607e-06
6.74378e-06
-3.79858e-06
3.84087e-06
-6.77039e-06
6.87401e-06
-5.32485e-06
5.22123e-06
-7.03485e-06
7.26011e-06
-6.797e-06
6.57173e-06
-7.58362e-06
8.04229e-06
-8.25251e-06
7.79384e-06
-8.73598e-06
9.37272e-06
-1.22469e-05
1.16101e-05
-1.03544e-05
1.05776e-05
-8.81801e-06
8.59484e-06
-8.72559e-06
4.93633e-06
1.53818e-05
-1.15926e-05
-1.36268e-05
1.32019e-05
4.24886e-07
3.95704e-07
-8.1314e-07
-3.6808e-07
7.85516e-07
1.31013e-06
-1.21335e-06
5.78841e-06
-5.88519e-06
3.97631e-07
7.14325e-07
1.53802e-05
-1.64922e-05
-1.88381e-06
3.09766e-06
1.53844e-05
-1.65982e-05
-4.08045e-06
4.71789e-06
7.54347e-06
-8.18091e-06
-5.12654e-06
5.4531e-06
3.16319e-06
-3.48975e-06
-5.7791e-06
6.12397e-06
1.27373e-06
-1.6186e-06
-6.47557e-06
6.81357e-06
4.20463e-07
-7.58461e-07
-7.11991e-06
7.38133e-06
7.80794e-09
-2.69224e-07
-7.58919e-06
7.73772e-06
-2.90728e-07
1.42207e-07
-7.82581e-06
7.85502e-06
-6.36713e-07
6.07496e-07
-7.8322e-06
7.76741e-06
-1.05553e-06
1.12032e-06
-7.67233e-06
7.55772e-06
-1.53199e-06
1.6466e-06
-7.4335e-06
7.30894e-06
-2.10556e-06
2.23012e-06
-7.19319e-06
7.09694e-06
-2.8603e-06
2.95654e-06
-7.03363e-06
7.01741e-06
-3.8687e-06
3.88492e-06
-7.06035e-06
7.17055e-06
-5.11082e-06
5.00062e-06
-7.3482e-06
7.56862e-06
-6.37063e-06
6.15021e-06
-7.79806e-06
8.05787e-06
-7.46069e-06
7.20088e-06
-8.69818e-06
1.00374e-05
-1.02393e-05
8.90009e-06
-1.16658e-05
1.21256e-05
-8.38617e-06
7.92635e-06
-1.03897e-05
6.12605e-06
7.37027e-06
-3.10659e-06
-1.20298e-05
1.0036e-05
1.99377e-06
-1.69106e-06
2.03014e-06
-9.51722e-07
6.12635e-07
-2.96981e-06
4.88622e-06
6.85667e-06
-8.77307e-06
-6.90996e-06
7.61747e-06
1.7425e-05
-1.81325e-05
-6.75148e-06
5.46694e-06
1.66746e-05
-1.539e-05
-4.75461e-06
4.65453e-06
8.53086e-06
-8.43079e-06
-4.86579e-06
5.20072e-06
3.83322e-06
-4.16815e-06
-5.59703e-06
6.0294e-06
2.0044e-06
-2.43677e-06
-6.46992e-06
6.88876e-06
1.13743e-06
-1.55627e-06
-7.26229e-06
7.57565e-06
5.58077e-07
-8.71442e-07
-7.82074e-06
7.99352e-06
1.768e-08
-1.90461e-07
-8.09137e-06
8.11609e-06
-5.828e-07
5.58082e-07
-8.07639e-06
7.98653e-06
-1.19818e-06
1.28804e-06
-7.86369e-06
7.72377e-06
-1.77002e-06
1.90993e-06
-7.58239e-06
7.45328e-06
-2.35119e-06
2.48029e-06
-7.3457e-06
7.26721e-06
-3.04093e-06
3.11942e-06
-7.22693e-06
7.23258e-06
-3.8904e-06
3.88476e-06
-7.28921e-06
7.40136e-06
-4.89049e-06
4.77834e-06
-7.57193e-06
7.79981e-06
-5.92086e-06
5.69298e-06
-8.08302e-06
8.41178e-06
-6.9165e-06
6.58774e-06
-8.8068e-06
9.40613e-06
-7.95709e-06
7.35776e-06
-1.02759e-05
1.06767e-05
-7.37443e-06
6.97369e-06
-9.52105e-06
6.07221e-06
-8.47751e-07
4.29659e-06
-7.23344e-06
3.79591e-06
3.43753e-06
-5.09502e-06
7.08028e-06
4.14736e-07
-2.39999e-06
-1.0389e-05
1.44338e-05
1.18077e-05
-1.58525e-05
-1.63403e-05
1.45605e-05
1.80817e-05
-1.63018e-05
-1.08508e-05
7.73806e-06
1.28761e-05
-9.76341e-06
-6.06716e-06
5.4432e-06
7.91459e-06
-7.29063e-06
-5.34101e-06
5.50535e-06
4.42727e-06
-4.59161e-06
-5.8292e-06
6.24237e-06
2.8839e-06
-3.29706e-06
-6.68016e-06
7.09058e-06
1.99604e-06
-2.40646e-06
-7.44267e-06
7.72399e-06
1.19509e-06
-1.47641e-06
-7.93311e-06
8.0753e-06
3.74611e-07
-5.16797e-07
-8.16075e-06
8.18369e-06
-5.19616e-07
4.96676e-07
-8.15654e-06
8.09792e-06
-1.36625e-06
1.42487e-06
-8.01757e-06
7.91793e-06
-2.04993e-06
2.14958e-06
-7.80283e-06
7.68057e-06
-2.62275e-06
2.74501e-06
-7.55822e-06
7.45289e-06
-3.2081e-06
3.31344e-06
-7.39166e-06
7.39086e-06
-3.87309e-06
3.8739e-06
-7.45114e-06
7.57009e-06
-4.66143e-06
4.54248e-06
-7.74509e-06
7.97228e-06
-5.46743e-06
5.24024e-06
-8.2531e-06
8.59838e-06
-6.24032e-06
5.89504e-06
-9.00895e-06
9.42423e-06
-6.91324e-06
6.49796e-06
-9.75976e-06
9.78111e-06
-6.81481e-06
6.79346e-06
-8.92579e-06
6.69928e-06
-7.25684e-06
9.48335e-06
-4.6584e-05
0.000124942
-7.83579e-05
6.13464e-05
-5.23427e-05
-9.00372e-06
3.62323e-05
-2.5204e-05
-1.10282e-05
2.01196e-05
-1.50991e-05
-5.02057e-06
6.92464e-06
9.49547e-06
-1.64201e-05
-2.81307e-05
4.62793e-05
-1.81486e-05
-6.41128e-05
7.89234e-05
-1.48106e-05
-7.4243e-05
4.71899e-05
2.70531e-05
1.19059e-05
-6.15967e-05
4.96908e-05
7.82471e-05
-7.93587e-05
1.11157e-06
7.76833e-05
-7.58471e-05
-1.83621e-06
7.46391e-05
-7.51166e-05
4.77521e-07
7.77652e-05
-8.22671e-05
4.50191e-06
8.87496e-05
-9.77258e-05
8.97621e-06
0.00010633
-0.000109702
3.37236e-06
0.000106758
-0.000100289
-6.46906e-06
9.13575e-05
-7.98838e-05
-1.14737e-05
6.64e-05
-4.61916e-05
-2.02083e-05
1.55404e-05
9.71847e-06
-2.52589e-05
-0.000183192
0.000212016
-2.88234e-05
7.1255e-05
-5.54806e-05
3.64412e-05
-5.22155e-05
3.5259e-05
-2.57982e-05
1.53084e-05
-2.47692e-05
1.39324e-05
-5.22745e-06
8.36963e-06
-1.70746e-05
-5.40418e-06
2.33075e-05
3.25275e-05
-5.04309e-05
-4.02156e-05
5.52174e-05
3.37167e-05
-4.87185e-05
-6.8516e-05
7.99197e-05
2.69367e-05
-3.83403e-05
-5.4523e-05
-3.16776e-05
-8.82476e-05
0.000174448
0.000117091
-0.000153838
-9.55974e-05
0.000132345
0.000174277
-0.000173328
1.16791e-06
-2.1166e-06
0.000165716
-0.000160676
5.75637e-07
-5.61618e-06
0.000158583
-0.000158202
-6.39615e-07
2.57978e-07
0.000158839
-0.000159779
-5.17084e-06
6.11121e-06
0.000160359
-0.000161207
-7.02585e-06
7.87331e-06
0.000165077
-0.000165856
9.39314e-07
-1.60281e-07
0.000154983
-0.000140671
1.26291e-05
-2.69413e-05
0.000132185
-0.000121552
2.29165e-05
-3.355e-05
0.000102221
-7.64676e-05
3.87491e-05
-6.45025e-05
4.52262e-05
-1.49127e-05
5.968e-05
-8.99935e-05
-0.00021793
0.000200521
1.74093e-05
9.46046e-06
-1.02397e-05
6.28895e-05
-6.21103e-05
8.90762e-06
-8.44976e-06
2.45021e-05
-2.49599e-05
6.24142e-06
5.72357e-06
2.4925e-05
-3.689e-05
-2.4771e-05
3.53282e-05
6.80146e-05
-7.85718e-05
-4.64046e-05
5.23606e-05
6.2111e-05
-6.8067e-05
-1.96689e-05
-4.41601e-05
7.54895e-06
5.62801e-05
0.00010229
-0.000147685
-0.000248183
0.000293577
0.000173392
-0.000215071
-0.000174012
0.000215691
0.000249817
-0.000255062
-3.09933e-05
3.62386e-05
0.000250742
-0.000247071
1.49472e-05
-1.86181e-05
0.000245838
-0.000239921
1.05969e-05
-1.6514e-05
0.000225178
-0.000202618
5.76193e-06
-2.83219e-05
0.000174979
-0.000145813
4.92755e-06
-3.40934e-05
0.000118759
-9.8956e-05
2.05311e-05
-4.03339e-05
8.92682e-05
-8.73071e-05
3.28786e-05
-3.48397e-05
9.49185e-05
-0.000113466
2.7136e-05
-8.58872e-06
0.000134549
-0.000130633
9.47118e-05
-9.86284e-05
8.70924e-05
-3.22863e-05
0.000126612
-0.000181418
-0.000165094
0.000121451
4.36439e-05
-3.53353e-05
2.60439e-05
5.90483e-05
-4.97569e-05
-1.47687e-05
1.73457e-05
3.01505e-05
-3.27275e-05
-2.52961e-05
3.2208e-05
5.31826e-05
-6.00945e-05
-3.39418e-05
3.82785e-05
8.41543e-05
-8.8491e-05
-3.87684e-05
-7.96068e-06
5.26192e-05
-5.89015e-06
0.000105419
-0.000169415
-0.000128746
0.000192742
0.000199303
-0.000209969
-0.000316022
0.000326688
0.000207009
-0.000201918
-0.000233213
0.000228122
0.000187009
-0.000177238
-2.38831e-05
1.41124e-05
0.00017284
-0.000174219
2.33107e-05
-2.19312e-05
0.000177937
-0.000177135
2.18807e-05
-2.26832e-05
0.000168023
-0.000150412
4.72238e-05
-6.48345e-05
0.00012705
-0.000101546
5.87388e-05
-8.42428e-05
7.66305e-05
-5.45872e-05
6.09877e-05
-8.3031e-05
3.47857e-05
-1.2346e-05
5.30869e-05
-7.55266e-05
-2.24018e-05
4.51718e-05
-1.45565e-05
-8.21352e-06
7.55076e-07
-6.86906e-05
6.90743e-05
-1.13875e-06
7.39148e-05
-3.69895e-05
0.000233653
-0.000270578
-8.26137e-05
5.62708e-05
2.63429e-05
-4.49637e-05
3.14228e-05
3.41913e-05
-2.06503e-05
-2.23024e-05
2.61829e-05
3.3636e-05
-3.75165e-05
-3.08726e-05
3.4056e-05
6.37938e-05
-6.69772e-05
-3.54859e-05
3.32824e-05
9.03841e-05
-8.81807e-05
-9.18971e-06
-7.8936e-05
-6.58587e-05
0.000153984
0.000146401
-0.000176949
-0.000241305
0.000271853
0.000196604
-0.000186221
-0.000326108
0.000315725
0.000162899
-0.000152458
-0.000214757
0.000204316
0.000153063
-0.000162751
-1.3454e-05
2.31418e-05
0.000178934
-0.000204806
1.03653e-05
1.55068e-05
0.000228007
-0.000229018
1.54834e-05
-1.4473e-05
0.000208238
-0.000178593
8.61387e-05
-0.000115783
0.000147716
-0.000118356
0.000115295
-0.000144655
9.24655e-05
-7.06594e-05
0.000108363
-0.000130169
4.84038e-05
-1.65649e-05
0.000102798
-0.000134637
-1.9835e-05
5.23925e-05
4.54152e-05
-7.79727e-05
-8.42366e-05
5.7072e-05
-7.0378e-05
9.75426e-05
2.34386e-05
-1.51878e-05
0.000290044
-0.000298295
-4.05458e-05
3.05776e-05
9.96818e-06
-2.47063e-05
2.01701e-05
1.36141e-05
-9.07794e-06
-2.57032e-05
2.90231e-05
4.50823e-05
-4.84022e-05
-3.35089e-05
3.55656e-05
6.95715e-05
-7.16281e-05
-3.57801e-05
2.72594e-05
8.17784e-05
-7.32577e-05
7.64088e-06
-9.36569e-05
-0.000246583
0.000332599
0.000129063
-0.000135926
-0.00028639
0.000293254
0.00014185
-0.000123072
-0.00029909
0.000280312
0.000104045
-0.000106077
-0.000200445
0.000202477
0.0001233
-0.000147663
-4.21721e-05
6.65358e-05
0.000173909
-0.000194338
-4.3794e-05
6.42236e-05
0.000193714
-0.000176389
2.89716e-05
-4.62961e-05
0.000153049
-0.000128816
0.000143505
-0.000167737
0.000103247
-7.67902e-05
0.000171297
-0.000197755
5.48054e-05
-4.10857e-05
0.000145083
-0.000158803
2.79374e-05
1.31894e-07
0.000164799
-0.000192869
-3.20613e-05
5.42803e-05
0.000105176
-0.000127395
-7.70083e-05
9.80391e-05
-8.61303e-05
6.50995e-05
-3.37225e-05
-8.88098e-06
0.000287653
-0.000245049
-2.56392e-05
2.18883e-05
3.75088e-06
-1.00975e-05
2.40595e-05
1.14426e-05
-2.54045e-05
-2.88083e-05
3.30235e-05
5.33701e-05
-5.75853e-05
-3.52861e-05
3.59021e-05
7.28665e-05
-7.34825e-05
-3.55907e-05
2.97337e-05
6.58119e-05
-5.99549e-05
-1.26029e-05
-4.25152e-05
-0.00040862
0.000463738
6.82872e-05
-8.31582e-05
-0.000302824
0.000317695
8.6976e-05
-7.18509e-05
-0.000262608
0.000247483
6.11115e-05
-7.09674e-05
-0.000209848
0.000219703
9.55853e-05
-0.000118161
-9.05313e-05
0.000113107
0.000136401
-0.000141478
-7.64692e-05
8.15461e-05
0.000135133
-0.000122746
6.12139e-05
-7.36011e-05
0.000105843
-8.73189e-05
0.000189534
-0.000208058
6.54245e-05
-4.11864e-05
0.00022375
-0.000247988
1.97101e-05
-3.42674e-06
0.000173882
-0.000190166
-1.52626e-05
3.59787e-05
0.000219303
-0.000240019
-4.7053e-05
6.22921e-05
0.000147535
-0.000162774
-7.18084e-05
8.46449e-05
-4.78885e-05
3.50521e-05
-8.8964e-05
8.79514e-07
0.000171596
-8.35118e-05
-1.19766e-05
-5.01737e-06
1.69939e-05
-2.36061e-05
2.95482e-05
3.09439e-05
-3.68859e-05
-3.27106e-05
3.40751e-05
6.04309e-05
-6.17954e-05
-3.41341e-05
3.44236e-05
7.37735e-05
-7.4063e-05
-3.35114e-05
2.33572e-05
5.42226e-05
-4.40684e-05
1.22279e-05
-4.28731e-05
-0.000504948
0.000535593
3.88989e-05
-4.2801e-05
-0.000330193
0.000334096
4.31279e-05
-3.16522e-05
-0.000234618
0.000223143
2.21305e-05
-2.85167e-05
-0.000229239
0.000235625
5.288e-05
-7.66294e-05
-0.000136222
0.000159971
8.7601e-05
-7.85607e-05
-7.71808e-05
6.81404e-05
6.14823e-05
-4.91145e-05
8.42785e-05
-9.66463e-05
4.04424e-05
-3.31249e-05
0.000220721
-0.000228039
2.14423e-05
-6.70533e-06
0.000268585
-0.000283322
-7.73541e-06
2.28187e-05
0.000207267
-0.000222351
-4.09581e-05
4.78205e-05
0.000252878
-0.00025974
-5.12599e-05
5.17487e-05
0.000169623
-0.000170112
-5.32433e-05
5.0741e-05
-3.05233e-05
3.30256e-05
-4.40889e-05
2.01017e-06
1.99903e-05
2.20884e-05
4.06965e-06
-1.32184e-05
9.14873e-06
-1.81e-05
2.7785e-05
5.6653e-06
-1.53503e-05
-3.51557e-05
3.41374e-05
1.97741e-05
-1.87558e-05
-2.46751e-05
1.62768e-05
1.2324e-05
-3.92571e-06
-1.29418e-05
1.26715e-05
7.29867e-06
-7.02838e-06
-1.27225e-05
1.29732e-05
6.94083e-06
-7.19158e-06
-1.37803e-05
1.50216e-05
4.79299e-06
-6.03429e-06
-1.64456e-05
1.78367e-05
3.70544e-06
-5.09652e-06
-1.90581e-05
2.00387e-05
2.75308e-06
-3.73359e-06
-2.0737e-05
2.11265e-05
1.65132e-06
-2.04084e-06
-2.11901e-05
2.09489e-05
5.16812e-07
-2.75544e-07
-2.04334e-05
1.96659e-05
-5.9788e-07
1.36532e-06
-1.87549e-05
1.78679e-05
-1.54253e-06
2.42954e-06
-1.71481e-05
1.66178e-05
-2.22389e-06
2.75415e-06
-1.63146e-05
1.62364e-05
-2.80146e-06
2.8797e-06
-1.62554e-05
1.62871e-05
-3.39705e-06
3.36534e-06
-1.63362e-05
1.63887e-05
-3.89737e-06
3.84483e-06
-1.64445e-05
1.65723e-05
-4.44097e-06
4.31316e-06
-1.68333e-05
1.72431e-05
-5.01097e-06
4.60118e-06
-1.78101e-05
1.85381e-05
-5.55237e-06
4.8244e-06
-1.94173e-05
2.03982e-05
-6.07076e-06
5.08983e-06
-2.14232e-05
2.23828e-05
-6.7449e-06
5.78536e-06
-2.3879e-05
2.7579e-05
-1.155e-05
7.85001e-06
2.36847e-05
-2.39249e-05
2.40226e-07
-1.84778e-05
-5.06194e-06
2.0812e-05
2.72769e-06
3.14057e-05
-2.94765e-05
-4.89485e-06
2.96561e-06
1.73015e-05
-2.51006e-05
1.37698e-05
-5.97074e-06
4.85496e-05
-6.41753e-05
7.39427e-06
8.23143e-06
6.65219e-05
-6.01064e-05
8.00163e-06
-1.44171e-05
5.36374e-05
-4.73962e-05
8.76668e-06
-1.50079e-05
4.10564e-05
-3.44097e-05
8.11205e-06
-1.47587e-05
2.74313e-05
-2.02295e-05
6.52878e-06
-1.37306e-05
1.30012e-05
-6.08587e-06
4.06333e-06
-1.09787e-05
1.04559e-08
4.89663e-06
1.07625e-06
-5.98334e-06
-9.88061e-06
1.52532e-05
-1.61176e-06
-3.76088e-06
-1.87173e-05
2.03511e-05
-3.35011e-06
1.71633e-06
-2.06366e-05
1.9756e-05
-4.1981e-06
5.07869e-06
-1.86622e-05
1.77961e-05
-3.83659e-06
4.70275e-06
-1.66565e-05
1.55807e-05
-3.5621e-06
4.6379e-06
-1.50182e-05
1.48979e-05
-3.36639e-06
3.48665e-06
-1.52077e-05
1.5984e-05
-3.88493e-06
3.10866e-06
-1.68844e-05
1.76557e-05
-4.28164e-06
3.51032e-06
-1.83383e-05
1.90448e-05
-4.22887e-06
3.52238e-06
-1.98528e-05
2.08461e-05
-4.01797e-06
3.02464e-06
-2.20988e-05
2.36911e-05
-3.99168e-06
2.39938e-06
-2.57444e-05
2.83656e-05
-3.89662e-06
1.27541e-06
1.28343e-05
-4.41359e-06
-8.42068e-06
1.98896e-05
-1.38455e-05
-1.33851e-05
7.34099e-06
1.0889e-05
-1.29846e-05
2.89043e-06
-7.94816e-07
1.66644e-05
-1.31574e-05
-3.70815e-06
2.01116e-07
5.40031e-06
-2.50331e-06
-1.28104e-05
9.91335e-06
6.11344e-06
-1.39051e-05
1.71718e-06
6.07451e-06
2.06219e-05
-2.61549e-05
1.02413e-05
-4.70834e-06
3.08231e-05
-3.4294e-05
1.51744e-05
-1.17034e-05
3.5947e-05
-3.68575e-05
1.66636e-05
-1.57531e-05
3.6406e-05
-3.47389e-05
1.3313e-05
-1.49801e-05
3.30949e-05
-3.47441e-05
1.40332e-05
-1.2384e-05
3.80554e-05
-4.47519e-05
2.4206e-05
-1.75094e-05
4.84784e-05
-4.64394e-05
6.39301e-06
-8.43201e-06
3.85532e-05
-1.98326e-05
-1.31935e-06
-1.74012e-05
5.31431e-06
4.1432e-06
-2.71776e-06
-6.73975e-06
-1.01419e-05
1.38543e-05
-6.31918e-06
2.60672e-06
-1.65012e-05
1.63136e-05
-4.46943e-06
4.65709e-06
-1.48708e-05
1.37641e-05
-2.58222e-06
3.68892e-06
-1.27371e-05
1.23556e-05
-2.55671e-06
2.93819e-06
-1.32122e-05
1.49633e-05
-2.24145e-06
4.90266e-07
-1.7086e-05
1.92564e-05
-1.78992e-06
-3.80434e-07
-2.11757e-05
2.27775e-05
-1.03737e-06
-5.64396e-07
-2.42937e-05
2.58656e-05
1.00384e-06
-2.57571e-06
1.06717e-06
1.6142e-06
-2.68137e-06
5.21896e-06
-2.95752e-06
-1.55335e-06
-7.08097e-07
-4.15177e-06
3.43474e-06
5.34945e-07
1.82082e-07
4.82036e-07
-1.76889e-06
-1.36775e-07
1.42363e-06
-4.05273e-07
3.1273e-06
-5.71862e-06
2.99659e-06
-6.31409e-06
9.1212e-06
-4.2533e-06
1.44618e-06
-1.07383e-05
1.11761e-05
2.25817e-06
-2.69593e-06
-1.12677e-05
1.07488e-05
6.52625e-06
-6.00734e-06
-9.21166e-06
6.69137e-06
9.5001e-06
-6.97981e-06
-1.55168e-06
-5.47305e-06
1.24225e-05
-5.39774e-06
1.12822e-05
-1.40058e-05
1.39922e-05
-1.12687e-05
1.49624e-05
-1.53023e-05
1.45669e-05
-1.42269e-05
1.4282e-05
-1.10584e-05
8.09955e-06
-1.13232e-05
8.56205e-06
-1.13462e-05
1.04953e-05
-7.71106e-06
1.38726e-05
-1.71611e-05
8.87751e-06
-5.589e-06
2.72169e-05
-3.73853e-05
9.57013e-06
5.98247e-07
3.73706e-05
-2.76289e-05
9.32951e-07
-1.06747e-05
1.02204e-05
8.06427e-08
1.25427e-07
-1.04265e-05
-7.56575e-06
1.18143e-05
-3.99717e-06
-2.51344e-07
-1.55276e-05
1.61506e-05
-7.18451e-07
9.54728e-08
-1.57787e-05
1.57623e-05
1.92355e-06
-1.9071e-06
-1.55774e-05
1.57927e-05
2.36085e-06
-2.57614e-06
-1.67547e-05
1.78386e-05
3.97937e-06
-5.06325e-06
-4.09639e-06
6.39855e-06
-2.30217e-06
3.15171e-06
-2.07396e-06
2.43783e-06
-3.51559e-06
2.53491e-07
1.82604e-07
-1.09197e-06
6.55876e-07
2.89655e-07
-6.29532e-08
-8.58266e-07
6.31565e-07
-6.25047e-07
1.57225e-06
-1.35583e-06
4.08629e-07
-2.5968e-06
3.40371e-06
-2.13731e-08
-7.85542e-07
-3.94008e-06
4.08689e-06
2.78428e-06
-2.9311e-06
-3.95261e-06
3.50393e-06
5.56906e-06
-5.12037e-06
-2.67359e-06
2.21478e-06
7.7921e-06
-7.33329e-06
-2.81145e-06
3.94749e-06
4.13685e-06
-5.27289e-06
-4.00206e-06
2.71649e-06
6.75088e-06
-5.46532e-06
-4.54205e-07
-1.77066e-06
1.14108e-05
-9.18594e-06
3.52875e-06
-4.98819e-06
1.05638e-05
-9.10432e-06
6.34945e-06
-7.8013e-06
1.00237e-05
-8.57187e-06
8.86598e-06
-9.37444e-06
7.18037e-06
-6.6719e-06
5.62273e-06
1.31582e-06
-3.90157e-06
-3.03698e-06
-4.38609e-06
4.44651e-06
2.26959e-06
-2.33001e-06
7.13227e-06
-1.52389e-05
1.03217e-05
-2.21508e-06
2.31171e-05
-3.18389e-05
1.22297e-05
-3.50786e-06
3.77401e-05
-3.59795e-05
5.15017e-06
-6.91071e-06
3.18763e-05
-1.63487e-05
9.31327e-06
-2.48409e-05
-2.60688e-07
8.51248e-06
3.11372e-06
-1.13655e-05
-1.65622e-05
2.10845e-05
4.87582e-06
-9.39815e-06
-8.68476e-06
1.10402e-05
-2.35549e-06
2.79128e-06
-2.0354e-06
4.46041e-06
-5.21629e-06
1.21875e-06
-6.71434e-07
-3.11604e-07
-2.3571e-07
4.91283e-07
-5.43172e-08
-1.90011e-07
-2.46955e-07
-4.16951e-07
9.76725e-07
3.64904e-07
-9.24678e-07
-1.49896e-06
1.92879e-06
1.3929e-06
-1.82272e-06
-2.20668e-06
2.3023e-06
3.01979e-06
-3.11542e-06
-2.22255e-06
1.9904e-06
4.75453e-06
-4.52238e-06
-1.57687e-06
8.86468e-07
6.53286e-06
-5.84247e-06
-2.75188e-07
3.38033e-07
5.76233e-06
-5.82517e-06
-8.43646e-07
1.0755e-06
5.75187e-06
-5.98372e-06
-7.4157e-07
8.99564e-08
7.76509e-06
-7.11348e-06
5.76023e-07
-1.24417e-06
7.90679e-06
-7.23864e-06
1.96126e-06
-2.66702e-06
8.10447e-06
-7.39871e-06
3.16573e-06
-3.27553e-06
6.80805e-06
-6.69825e-06
2.51176e-06
-9.32413e-07
3.96166e-06
-5.54101e-06
6.8471e-07
-2.41869e-06
7.28881e-06
-5.55483e-06
-5.3685e-07
3.18554e-06
1.39479e-06
-4.04348e-06
-2.92211e-06
7.21766e-06
1.79477e-06
-6.09033e-06
-1.14582e-05
1.42842e-05
5.13981e-06
-7.9658e-06
-1.7252e-05
1.01271e-05
7.47888e-06
-3.54025e-07
-2.54157e-06
-1.02069e-05
1.43693e-05
-1.62079e-06
2.47796e-05
-4.11882e-05
2.84224e-05
-1.20139e-05
-1.35026e-05
1.6075e-05
-2.57238e-06
3.16392e-06
-2.54517e-06
5.88772e-06
-6.50647e-06
1.77688e-06
-1.23905e-06
7.73472e-07
-1.3113e-06
8.76193e-07
-5.00316e-07
6.6472e-07
-1.0406e-06
1.57237e-07
1.77049e-07
1.34782e-06
-1.68211e-06
-4.70558e-07
6.98174e-07
2.1311e-06
-2.35871e-06
-8.37766e-07
8.73559e-07
3.17217e-06
-3.20796e-06
-8.01252e-07
6.29144e-07
4.31676e-06
-4.14465e-06
-3.6633e-07
8.06122e-09
5.33068e-06
-4.97241e-06
3.60258e-07
-5.92286e-07
5.66039e-06
-5.42836e-06
6.89202e-07
-8.30507e-07
6.00894e-06
-5.86763e-06
1.07243e-06
-1.3539e-06
6.75296e-06
-6.47148e-06
1.58082e-06
-1.76323e-06
6.9566e-06
-6.77419e-06
1.94473e-06
-2.10042e-06
7.06232e-06
-6.90663e-06
2.16754e-06
-2.08234e-06
6.73872e-06
-6.82392e-06
1.76562e-06
-1.17962e-06
6.15928e-06
-6.74528e-06
4.35534e-07
1.97823e-07
6.44193e-06
-7.07529e-06
-1.57183e-06
2.95751e-06
6.01709e-06
-7.40277e-06
-4.14298e-06
6.29203e-06
6.79228e-06
-8.94133e-06
-8.98785e-06
1.09084e-05
8.16738e-06
-1.00879e-05
-1.42292e-05
1.74116e-05
7.4756e-06
-1.0658e-05
-2.02574e-05
2.61764e-05
4.90012e-06
-1.08191e-05
-3.36201e-05
3.99419e-05
1.14108e-06
-7.46283e-06
-1.87343e-05
2.14171e-05
-2.68278e-06
3.5263e-06
-2.98049e-06
7.08541e-06
-7.63122e-06
2.17689e-06
-1.62379e-06
1.85631e-06
-2.40941e-06
1.24596e-06
-9.36398e-07
1.38075e-06
-1.69031e-06
6.73256e-07
-4.48387e-07
1.95265e-06
-2.17752e-06
2.7317e-07
-1.50437e-07
2.52929e-06
-2.65202e-06
8.65383e-08
-8.40214e-08
3.2251e-06
-3.22762e-06
1.48065e-07
-2.73383e-07
3.99904e-06
-3.87373e-06
4.52452e-07
-6.71251e-07
4.70797e-06
-4.48917e-06
9.04093e-07
-1.11634e-06
5.20291e-06
-4.99067e-06
1.31265e-06
-1.5191e-06
5.67138e-06
-5.46493e-06
1.75125e-06
-1.99097e-06
6.21678e-06
-5.97707e-06
2.21247e-06
-2.39971e-06
6.58951e-06
-6.40228e-06
2.53716e-06
-2.60197e-06
6.82646e-06
-6.76164e-06
2.56852e-06
-2.41831e-06
6.97447e-06
-7.12468e-06
2.13658e-06
-1.71295e-06
7.24005e-06
-7.66369e-06
1.14313e-06
-4.33522e-07
7.84804e-06
-8.55765e-06
-5.13131e-07
1.64874e-06
8.84648e-06
-9.98209e-06
-2.93531e-06
4.59244e-06
1.05829e-05
-1.22401e-05
-6.74008e-06
9.45369e-06
1.24257e-05
-1.51393e-05
-1.33911e-05
1.85931e-05
1.57888e-05
-2.09908e-05
-2.40652e-05
2.96989e-05
1.6703e-05
-2.23367e-05
-3.57581e-05
4.16018e-05
1.09297e-05
-1.67734e-05
-2.40162e-05
2.63617e-05
-2.34555e-06
3.46458e-06
-3.01484e-06
8.13825e-06
-8.58798e-06
2.27023e-06
-1.75365e-06
2.95739e-06
-3.47397e-06
1.43033e-06
-1.19536e-06
1.96657e-06
-2.20155e-06
1.0114e-06
-8.69834e-07
2.36068e-06
-2.50224e-06
7.70968e-07
-7.15526e-07
2.73969e-06
-2.79513e-06
7.05032e-07
-7.38625e-07
3.21081e-06
-3.17722e-06
8.1621e-07
-9.3295e-07
3.75628e-06
-3.63954e-06
1.0829e-06
-1.26091e-06
4.29707e-06
-4.11907e-06
1.45658e-06
-1.65987e-06
4.78487e-06
-4.58159e-06
1.86489e-06
-2.07618e-06
5.25613e-06
-5.04484e-06
2.29332e-06
-2.51141e-06
5.75329e-06
-5.5352e-06
2.71498e-06
-2.89754e-06
6.22159e-06
-6.03902e-06
3.04292e-06
-3.13819e-06
6.69033e-06
-6.59506e-06
3.17038e-06
-3.12882e-06
7.23192e-06
-7.27348e-06
3.00467e-06
-2.7898e-06
7.99012e-06
-8.20498e-06
2.47486e-06
-2.04894e-06
9.14311e-06
-9.56903e-06
1.49336e-06
-8.00107e-07
1.09189e-05
-1.16122e-05
-4.02314e-08
1.10274e-06
1.36611e-05
-1.47236e-05
-2.52344e-06
4.4151e-06
1.76379e-05
-1.95295e-05
-6.99096e-06
9.27073e-06
2.54143e-05
-2.7694e-05
-9.905e-06
1.10786e-05
2.61173e-05
-2.72908e-05
-1.58363e-05
2.35874e-05
2.33093e-05
-3.10604e-05
-2.82697e-05
2.95222e-05
-1.25244e-06
2.64107e-06
-2.37061e-06
8.97034e-06
-9.24081e-06
1.87803e-06
-1.54638e-06
3.92195e-06
-4.25361e-06
1.362e-06
-1.24169e-06
2.38405e-06
-2.50437e-06
1.15744e-06
-1.10419e-06
2.60124e-06
-2.65449e-06
1.08085e-06
-1.089e-06
2.81781e-06
-2.80966e-06
1.13029e-06
-1.20052e-06
3.12563e-06
-3.05541e-06
1.30041e-06
-1.43016e-06
3.5196e-06
-3.38986e-06
1.58499e-06
-1.76133e-06
3.94508e-06
-3.76874e-06
1.9547e-06
-2.16046e-06
4.37845e-06
-4.17269e-06
2.37726e-06
-2.6011e-06
4.82909e-06
-4.60526e-06
2.83062e-06
-3.06059e-06
5.31616e-06
-5.08619e-06
3.28586e-06
-3.50055e-06
5.84652e-06
-5.63183e-06
3.69845e-06
-3.87334e-06
6.46362e-06
-6.28873e-06
4.01861e-06
-4.12831e-06
7.241e-06
-7.13129e-06
4.19825e-06
-4.22477e-06
8.30125e-06
-8.27473e-06
4.20531e-06
-4.14358e-06
9.81632e-06
-9.87805e-06
4.03759e-06
-3.90315e-06
1.20322e-05
-1.21666e-05
3.75092e-06
-3.6066e-06
1.5351e-05
-1.54953e-05
3.47862e-06
-3.42189e-06
2.05006e-05
-2.05573e-05
4.14442e-06
-6.2376e-06
2.73203e-05
-2.52271e-05
9.48357e-06
-1.16386e-05
2.65924e-05
-2.44374e-05
1.05458e-05
-6.53962e-06
3.85132e-05
-4.25194e-05
-2.99904e-05
2.9877e-05
1.13457e-07
1.04501e-06
-1.14972e-06
9.33562e-06
-9.23091e-06
1.12867e-06
-1.10665e-06
4.43589e-06
-4.45791e-06
1.12215e-06
-1.14088e-06
2.55533e-06
-2.5366e-06
1.16609e-06
-1.20207e-06
2.66277e-06
-2.62679e-06
1.25371e-06
-1.32381e-06
2.76957e-06
-2.69948e-06
1.41376e-06
-1.52472e-06
2.96423e-06
-2.85328e-06
1.65724e-06
-1.81064e-06
3.24887e-06
-3.09547e-06
1.98452e-06
-2.17687e-06
3.58594e-06
-3.39359e-06
2.38586e-06
-2.60963e-06
3.95863e-06
-3.73487e-06
2.84612e-06
-3.09408e-06
4.37066e-06
-4.12269e-06
3.35187e-06
-3.61702e-06
4.83986e-06
-4.5747e-06
3.88758e-06
-4.16041e-06
5.38906e-06
-5.11623e-06
4.43541e-06
-4.7086e-06
6.06588e-06
-5.79269e-06
4.97874e-06
-5.24511e-06
6.94212e-06
-6.67576e-06
5.51151e-06
-5.77846e-06
8.12655e-06
-7.8596e-06
6.05111e-06
-6.33971e-06
9.76074e-06
-9.47214e-06
6.65507e-06
-7.01568e-06
1.20374e-05
-1.16768e-05
7.4619e-06
-8.03559e-06
1.5228e-05
-1.46543e-05
8.79718e-06
-9.87374e-06
1.989e-05
-1.88134e-05
1.13642e-05
-1.25188e-05
2.31562e-05
-2.20016e-05
1.25973e-05
-1.38301e-05
2.19436e-05
-2.07108e-05
1.73881e-05
-2.07422e-05
4.18618e-05
-3.85077e-05
-2.96218e-05
2.94744e-05
1.47439e-07
-9.74077e-08
-1.89218e-07
8.97246e-06
-8.68584e-06
5.01452e-07
-7.2181e-07
4.33697e-06
-4.11662e-06
8.83681e-07
-1.01118e-06
2.4562e-06
-2.3287e-06
1.12392e-06
-1.23333e-06
2.55089e-06
-2.44148e-06
1.34693e-06
-1.46934e-06
2.60176e-06
-2.47935e-06
1.60335e-06
-1.75187e-06
2.7233e-06
-2.57478e-06
1.91612e-06
-2.09707e-06
2.92813e-06
-2.74719e-06
2.29514e-06
-2.51017e-06
3.19024e-06
-2.97521e-06
2.74187e-06
-2.98977e-06
3.49954e-06
-3.25163e-06
3.25341e-06
-3.53275e-06
3.85974e-06
-3.5804e-06
3.82687e-06
-4.13707e-06
4.28801e-06
-3.97781e-06
4.46193e-06
-4.80202e-06
4.8094e-06
-4.4693e-06
5.15785e-06
-5.53105e-06
5.46897e-06
-5.09577e-06
5.92388e-06
-6.33965e-06
6.33177e-06
-5.916e-06