/*--------------------------------*- C++ -*----------------------------------*\
| =========                 |                                                 |
| \\      /  F ield         | OpenFOAM: The Open Source CFD Toolbox           |
|  \\    /   O peration     | Version:  v1912                                 |
|   \\  /    A nd           | Website:  www.openfoam.com                      |
|    \\/     M anipulation  |                                                 |
\*---------------------------------------------------------------------------*/
FoamFile
{
    version     2.0;
    format      ascii;
    class       volVectorField;
    location    "0.55";
    object      U;
}
// * * * * * * * * * * * * * * * * * * * * * * * * * * * * * * * * * * * * * //

dimensions      [0 1 -1 0 0 0 0];


internalField   nonuniform List<vector> 
9072
(
(-0.0279757 0.0244397 0)
(-0.0666278 0.00171344 0)
(-0.0314791 -0.00684882 0)
(0.0416101 -0.0089435 0)
(0.114516 -0.00724177 0)
(0.164944 -0.00391449 0)
(0.188182 -0.00105952 0)
(0.191963 0.000748541 0)
(0.185028 0.00141284 0)
(0.175853 0.00126299 0)
(0.167526 0.00106317 0)
(0.159935 0.00104555 0)
(0.151862 0.00130569 0)
(0.140974 0.00215105 0)
(0.122513 0.00427704 0)
(0.0865911 0.00870695 0)
(0.0162044 0.0143428 0)
(-0.0889032 0.00410102 0)
(-0.146849 0.0104062 0)
(-0.169488 -0.0197116 0)
(0.0105988 -0.0271999 0)
(-0.257522 0.0547693 0)
(-0.238608 -0.0303292 0)
(-0.0268992 0.0627832 0)
(-0.0643584 0.000708285 0)
(-0.0260357 -0.0360402 0)
(0.0439664 -0.045749 0)
(0.114675 -0.0376356 0)
(0.164235 -0.0215437 0)
(0.188221 -0.00799611 0)
(0.194982 8.22217e-05 0)
(0.193028 0.00369759 0)
(0.187685 0.00460965 0)
(0.181682 0.00435229 0)
(0.175961 0.0040525 0)
(0.170194 0.00434535 0)
(0.163489 0.00560032 0)
(0.155101 0.00868288 0)
(0.146123 0.0166591 0)
(0.141202 0.036795 0)
(0.117443 0.063175 0)
(-0.00192883 0.0601892 0)
(-0.112669 -0.0443638 0)
(-0.171032 0.0199213 0)
(-0.375664 0.139199 0)
(-0.232213 -0.187852 0)
(-0.0227377 0.0960355 0)
(-0.0576045 -0.00108779 0)
(-0.0214695 -0.0624582 0)
(0.0350847 -0.0788729 0)
(0.101639 -0.0662733 0)
(0.149039 -0.0379608 0)
(0.172082 -0.0146119 0)
(0.180202 -0.00112143 0)
(0.181449 0.00489253 0)
(0.180071 0.00655536 0)
(0.177787 0.00641462 0)
(0.17484 0.00623701 0)
(0.170778 0.00697071 0)
(0.165045 0.00912316 0)
(0.157216 0.0134693 0)
(0.147359 0.0218171 0)
(0.137885 0.0371937 0)
(0.143791 0.0649091 0)
(0.168344 0.0987861 0)
(0.10187 0.0477283 0)
(-0.118307 0.063803 0)
(-0.131277 0.144612 0)
(-0.0710953 -0.242937 0)
(-0.0177957 0.123819 0)
(-0.0477009 -0.0044567 0)
(-0.0386336 -0.0768166 0)
(-0.00294542 -0.109045 0)
(0.0780073 -0.0956651 0)
(0.128286 -0.0536583 0)
(0.15075 -0.021563 0)
(0.161641 -0.00389957 0)
(0.167863 0.00383734 0)
(0.17199 0.00627074 0)
(0.174378 0.00671641 0)
(0.17462 0.0072826 0)
(0.172345 0.00893901 0)
(0.167628 0.0120743 0)
(0.160934 0.0173131 0)
(0.153255 0.0259989 0)
(0.146931 0.0399174 0)
(0.145872 0.0588449 0)
(0.16258 0.0806813 0)
(0.186575 0.0916231 0)
(0.0870756 0.114596 0)
(0.118144 0.108326 0)
(0.0788272 -0.2149 0)
(-0.00971385 0.142657 0)
(-0.0352266 -0.0032777 0)
(-0.0692548 -0.0705645 0)
(-0.0479421 -0.143509 0)
(0.0498444 -0.134646 0)
(0.111285 -0.0692674 0)
(0.131971 -0.0288379 0)
(0.145329 -0.00876717 0)
(0.156947 6.64963e-05 0)
(0.166629 0.00348537 0)
(0.173304 0.00521187 0)
(0.176118 0.00729763 0)
(0.174998 0.0104175 0)
(0.170786 0.0146812 0)
(0.164775 0.0205566 0)
(0.158512 0.0290608 0)
(0.154308 0.041269 0)
(0.155424 0.056956 0)
(0.162505 0.0719345 0)
(0.177377 0.0862974 0)
(0.211412 0.132626 0)
(0.238895 0.0952965 0)
(0.17267 -0.144065 0)
(0.00408002 0.146275 0)
(-0.0105979 0.00637508 0)
(-0.035667 -0.0622542 0)
(0.00558879 -0.173654 0)
(0.0556106 -0.175054 0)
(0.101975 -0.0852329 0)
(0.120996 -0.0358286 0)
(0.135815 -0.0154926 0)
(0.151771 -0.0062252 0)
(0.165754 -0.00138746 0)
(0.175282 0.00238342 0)
(0.179354 0.00671796 0)
(0.178366 0.0117234 0)
(0.174055 0.0171446 0)
(0.168411 0.0234093 0)
(0.163142 0.0314144 0)
(0.160247 0.0418669 0)
(0.162131 0.0545639 0)
(0.170111 0.0675908 0)
(0.18076 0.0790723 0)
(0.21043 0.102679 0)
(0.276033 0.0888698 0)
(0.207494 -0.0551986 0)
(0.0229004 0.12159 0)
(0.0430444 0.0095658 0)
(0.0812801 -0.0828274 0)
(0.181665 -0.193126 0)
(0.134943 -0.176312 0)
(0.104686 -0.0926565 0)
(0.114613 -0.0431475 0)
(0.132611 -0.0237569 0)
(0.152601 -0.0143829 0)
(0.16966 -0.00763526 0)
(0.180911 -0.00109103 0)
(0.185442 0.00618385 0)
(0.183695 0.0134115 0)
(0.178108 0.0198251 0)
(0.171676 0.0260393 0)
(0.166758 0.0332438 0)
(0.164904 0.0419783 0)
(0.167439 0.052174 0)
(0.175153 0.06265 0)
(0.188144 0.072968 0)
(0.205761 0.0820391 0)
(0.241468 0.0759718 0)
(0.195695 0.0281366 0)
(0.0383674 0.062487 0)
(0.135337 -0.0131048 0)
(0.284362 -0.14312 0)
(0.376097 -0.18663 0)
(0.200386 -0.122387 0)
(0.127552 -0.0817048 0)
(0.122759 -0.0490871 0)
(0.137514 -0.0339154 0)
(0.157345 -0.0242486 0)
(0.173439 -0.0148027 0)
(0.183079 -0.00494751 0)
(0.186905 0.00517241 0)
(0.185826 0.0147111 0)
(0.182147 0.0227373 0)
(0.176929 0.0292539 0)
(0.171313 0.0352651 0)
(0.168487 0.0416883 0)
(0.171227 0.049613 0)
(0.179145 0.0578009 0)
(0.191985 0.0654754 0)
(0.210363 0.0723738 0)
(0.22435 0.0729173 0)
(0.193261 0.0903369 0)
(-1.77933 0.709238 0)
(-1.34075 -0.197745 0)
(-0.647427 -0.159714 0)
(-0.429264 -0.0717541 0)
(0.0186434 -0.11075 0)
(0.8383 -0.139888 0)
(1.63013 -0.126897 0)
(1.73808 0.127957 0)
(-1.12149 0.380648 0)
(-1.82028 0.0293801 0)
(-1.74774 0.00673014 0)
(-1.6976 -0.0105763 0)
(-1.81984 0.0233949 0)
(-2.11115 0.113828 0)
(-2.51021 0.0958456 0)
(-2.37457 0.0043594 0)
(-1.99113 -0.0300985 0)
(-1.27316 -0.0887194 0)
(-0.119771 -0.13581 0)
(-1.06889 1.99073 0)
(-1.41551 -0.566789 0)
(-0.741641 -0.224983 0)
(-0.186357 -0.155043 0)
(0.338738 -0.400478 0)
(1.09397 -0.408759 0)
(1.67464 -0.397961 0)
(1.04799 1.07184 0)
(-3.1785 0.939951 0)
(-4.02143 0.0165826 0)
(-3.6983 0.0283028 0)
(-3.60908 -0.00548703 0)
(-3.6384 0.0434026 0)
(-3.6648 0.0773632 0)
(-3.83622 0.0420109 0)
(-3.29763 -0.152913 0)
(-2.95521 -0.287425 0)
(-2.0353 -0.579266 0)
(-0.726117 -0.697892 0)
(-0.20156 2.11937 0)
(-0.249009 -0.634371 0)
(-0.234543 -0.212434 0)
(-0.0728019 -0.235755 0)
(0.706287 -0.737277 0)
(1.17448 -0.670429 0)
(-0.389956 0.276264 0)
(-2.52122 2.76994 0)
(-4.06607 2.07734 0)
(-5.90216 0.399109 0)
(-5.62787 -0.188203 0)
(-5.60071 -0.164566 0)
(-4.8989 -0.165415 0)
(-3.64842 -0.184413 0)
(-2.45741 -0.256044 0)
(-1.91777 -0.280919 0)
(-2.36545 -0.191304 0)
(-3.43367 -0.949692 0)
(-1.06701 -1.51094 0)
(0.499685 1.39314 0)
(0.890369 -0.50502 0)
(0.28218 -0.305627 0)
(0.673633 -0.552458 0)
(0.821909 -0.840445 0)
(0.819831 -0.364899 0)
(-3.76537 1.52086 0)
(-4.56669 3.13228 0)
(-4.66985 2.2697 0)
(-4.13084 0.162614 0)
(-3.92824 -0.238664 0)
(-4.0969 -0.249922 0)
(-3.66474 -0.555254 0)
(-2.60786 -0.700217 0)
(-1.49163 -0.718673 0)
(-0.516652 -0.645834 0)
(0.984735 0.165485 0)
(-1.4752 -0.499389 0)
(-1.16166 -2.48632 0)
(0.37632 0.633241 0)
(0.948453 -0.259644 0)
(0.539875 -0.356937 0)
(0.753591 -0.636035 0)
(0.829003 -0.878176 0)
(-0.43045 1.07423 0)
(-3.77014 2.52388 0)
(-4.50129 3.12574 0)
(-3.51369 2.02668 0)
(-3.56911 0.163091 0)
(-4.34479 -0.0157603 0)
(-5.38033 -0.0609521 0)
(-4.40405 -0.972362 0)
(-3.01736 -1.26503 0)
(-1.87101 -1.16095 0)
(-0.745713 -1.16758 0)
(0.801638 -0.625913 0)
(2.22693 0.95764 0)
(-0.498277 -2.86685 0)
(0.0986302 0.339927 0)
(0.5009 -0.138117 0)
(0.595388 -0.435786 0)
(0.809998 -0.686924 0)
(0.822597 -0.747847 0)
(-1.19307 2.88305 0)
(-2.66683 2.84604 0)
(-3.09873 2.80931 0)
(-2.29542 1.96075 0)
(-3.07087 0.527638 0)
(-4.34568 0.542986 0)
(-4.2752 -0.376767 0)
(-3.18326 -1.51934 0)
(-2.04734 -1.79181 0)
(-1.07477 -1.4767 0)
(-0.314889 -1.72356 0)
(1.00511 -1.11996 0)
(2.33137 0.700333 0)
(-0.264039 -2.7155 0)
(-0.0703566 0.253635 0)
(0.413908 -0.167753 0)
(0.715783 -0.541399 0)
(0.821629 -0.711744 0)
(0.820908 -0.611834 0)
(-0.156614 4.24983 0)
(-1.47363 2.99628 0)
(-1.80432 2.46616 0)
(-1.3935 2.07892 0)
(-2.45704 0.988414 0)
(-3.31538 0.8099 0)
(-2.94276 -0.648331 0)
(-2.18742 -1.94718 0)
(-1.21656 -2.29768 0)
(-0.270802 -1.76506 0)
(0.698011 -2.26249 0)
(1.17004 -1.54341 0)
(1.61438 0.385365 0)
(0.429093 -0.789525 0)
(0.24687 -0.0810854 0)
(0.618597 -0.334877 0)
(0.770776 -0.596626 0)
(0.7761 -0.718226 0)
(0.735091 -0.508979 0)
(-0.561481 5.10672 0)
(-0.684763 3.2393 0)
(-0.821306 2.21876 0)
(-0.47225 2.26987 0)
(-1.48893 1.44153 0)
(-2.005 0.682538 0)
(-1.22149 -0.912674 0)
(-0.865788 -2.19243 0)
(-0.330363 -2.70381 0)
(0.288406 -2.09368 0)
(1.06552 -2.49967 0)
(1.1473 -1.66189 0)
(0.961577 0.311157 0)
(0.072152 -0.0312408 0)
(0.0432476 -0.0852284 0)
(0.239156 -0.1031 0)
(0.390126 -0.246682 0)
(0.221098 -0.0887986 0)
(0.129759 -0.0689985 0)
(0.136952 -0.0768299 0)
(0.153774 -0.0563266 0)
(0.184241 -0.0444828 0)
(0.210351 -0.0316195 0)
(0.22541 -0.016213 0)
(0.226892 -0.00305177 0)
(0.215738 0.0072346 0)
(0.196544 0.0152429 0)
(0.180717 0.0240904 0)
(0.174417 0.0319557 0)
(0.174794 0.0380101 0)
(0.175712 0.041895 0)
(0.177038 0.0467077 0)
(0.182474 0.0516551 0)
(0.194733 0.0560624 0)
(0.213627 0.0603215 0)
(0.238023 0.0689937 0)
(0.288902 0.111697 0)
(0.0260784 -0.322721 0)
(0.177269 -0.202354 0)
(-0.371589 0.188402 0)
(-0.186457 -0.253743 0)
(-0.646858 -0.0252239 0)
(-0.675052 -0.0986718 0)
(-0.541695 -0.109353 0)
(-0.406135 -0.104429 0)
(-0.256531 -0.0880254 0)
(-0.101171 -0.0583741 0)
(0.0290528 -0.0227325 0)
(0.136774 0.00702997 0)
(0.215032 0.0266815 0)
(0.219332 0.0526022 0)
(0.195292 0.0552754 0)
(0.172797 0.0433183 0)
(0.159029 0.0306865 0)
(0.166866 0.0374912 0)
(0.185747 0.0449996 0)
(0.200545 0.0429018 0)
(0.217891 0.0374246 0)
(0.24461 0.0337809 0)
(0.28798 0.0244443 0)
(-0.0759372 -0.085749 0)
(-0.187221 0.123174 0)
(-0.100186 -0.0075322 0)
(-0.195618 0.0263036 0)
(-0.0283587 0.17244 0)
(-0.111525 0.112941 0)
(-0.252779 -0.0716062 0)
(-0.352336 -0.160935 0)
(-0.393286 -0.19288 0)
(-0.381453 -0.161239 0)
(-0.354271 -0.163805 0)
(-0.445037 -0.354686 0)
(-0.557015 -0.12238 0)
(-0.28376 -0.0252668 0)
(0.00467066 0.0164304 0)
(0.130978 0.0722972 0)
(0.184393 0.0501246 0)
(0.151388 0.0280877 0)
(0.132966 0.0223598 0)
(0.149247 0.0148615 0)
(0.195346 0.0109915 0)
(0.236597 0.00351152 0)
(0.268983 -0.0201606 0)
(-0.0241322 0.00211793 0)
(-0.0643222 0.0109229 0)
(0.0699091 -0.0110994 0)
(-0.0295887 0.0286487 0)
(0.0147776 0.0507394 0)
(0.0828139 0.0266018 0)
(0.118627 -0.0352969 0)
(0.119365 -0.0711255 0)
(0.0932152 -0.0690609 0)
(-0.0215896 -0.0949634 0)
(-0.145583 -0.169819 0)
(-0.165763 -0.191863 0)
(-0.137049 -0.0966262 0)
(-0.0996435 0.0138426 0)
(-0.150678 -0.0824482 0)
(-0.387443 -0.161841 0)
(-0.368021 -0.0749077 0)
(-0.0542106 -0.0566105 0)
(0.11006 0.0444439 0)
(0.176819 0.0230529 0)
(0.167897 -0.0230837 0)
(0.167591 -0.0386047 0)
(0.185472 -0.0520273 0)
(-0.0220411 0.0570009 0)
(-0.0318229 -0.0327398 0)
(0.00401041 0.00662277 0)
(-0.00629868 0.0105489 0)
(0.0100594 0.0104399 0)
(0.031954 -0.00568104 0)
(0.0433365 -0.0350604 0)
(0.0410395 -0.0614694 0)
(0.0241037 -0.0848637 0)
(0.0382157 -0.0564089 0)
(0.0398379 -0.0571297 0)
(-0.00818571 -0.109396 0)
(-0.0460126 -0.0977737 0)
(-0.0768213 -0.0799607 0)
(-0.102497 -0.0895371 0)
(-0.0304213 -0.0611869 0)
(0.0574149 0.065778 0)
(-0.179517 -0.0921294 0)
(-0.340418 -0.180028 0)
(-0.425313 -0.103338 0)
(-0.274284 -0.203617 0)
(0.0546752 -0.048422 0)
(0.213833 -0.0370736 0)
(-0.0224575 0.106508 0)
(-0.0293307 -0.052232 0)
(-0.0100967 -0.000256094 0)
(-0.00399835 -0.000158792 0)
(0.00700639 -0.00707217 0)
(0.0182865 -0.0178364 0)
(0.0243022 -0.0340301 0)
(0.0228494 -0.0508521 0)
(0.0140259 -0.0666718 0)
(0.00141781 -0.063826 0)
(0.012357 -0.0640458 0)
(0.00475662 -0.079078 0)
(-0.00965604 -0.0792697 0)
(-0.0252129 -0.0814679 0)
(-0.0359752 -0.0766947 0)
(-0.0205459 -0.0654033 0)
(-0.0164475 -0.0537137 0)
(0.0360365 -0.058222 0)
(0.0390849 -0.111212 0)
(0.131487 -0.0803211 0)
(0.1322 0.102242 0)
(-0.0432718 -0.0559572 0)
(-0.399439 -0.372747 0)
(-0.024124 0.159331 0)
(-0.0348053 -0.0667862 0)
(-0.0167678 -0.011125 0)
(-0.00770561 -0.00920834 0)
(3.54823e-05 -0.0164355 0)
(0.00627073 -0.024421 0)
(0.00926695 -0.0346996 0)
(0.00782042 -0.0459282 0)
(0.00223747 -0.055556 0)
(-0.00556295 -0.0601359 0)
(-0.00773764 -0.0644029 0)
(-0.0130854 -0.0711366 0)
(-0.0179874 -0.0738912 0)
(-0.02182 -0.0749127 0)
(-0.02334 -0.0731299 0)
(-0.0164454 -0.0709981 0)
(-0.00167136 -0.0723912 0)
(0.0238224 -0.0791444 0)
(0.0550274 -0.101064 0)
(0.107229 -0.0979635 0)
(0.167893 -0.0750917 0)
(0.245084 -0.102086 0)
(0.398666 -0.0702007 0)
(-0.0257326 0.216315 0)
(-0.0395919 -0.0795276 0)
(-0.0207283 -0.0230597 0)
(-0.0118046 -0.0166822 0)
(-0.0060115 -0.0224106 0)
(-0.00216372 -0.0281137 0)
(-0.000776953 -0.0350038 0)
(-0.00214108 -0.0426536 0)
(-0.00594477 -0.0497506 0)
(-0.0108629 -0.0551377 0)
(-0.0150254 -0.0601363 0)
(-0.0200248 -0.0656703 0)
(-0.0248421 -0.0699821 0)
(-0.0278011 -0.0731956 0)
(-0.0271145 -0.0760501 0)
(-0.0210823 -0.0806063 0)
(-0.00898912 -0.0888935 0)
(0.0110378 -0.102502 0)
(0.0396095 -0.125286 0)
(0.0853545 -0.149712 0)
(0.169385 -0.197743 0)
(0.288235 -0.216191 0)
(0.414701 -0.153147 0)
(-0.0244403 0.271968 0)
(-0.0392004 -0.0907961 0)
(-0.0216156 -0.0350009 0)
(-0.014082 -0.0226771 0)
(-0.0100687 -0.026383 0)
(-0.00792935 -0.0300012 0)
(-0.00768639 -0.0346069 0)
(-0.00928903 -0.0400357 0)
(-0.0125153 -0.0455147 0)
(-0.0166649 -0.0506186 0)
(-0.0210649 -0.0556183 0)
(-0.0257549 -0.06086 0)
(-0.0301917 -0.0661021 0)
(-0.0333137 -0.0716957 0)
(-0.0340201 -0.0784043 0)
(-0.0313562 -0.0876877 0)
(-0.0245615 -0.101509 0)
(-0.012641 -0.122469 0)
(0.00577195 -0.154671 0)
(0.0366113 -0.203356 0)
(0.0875334 -0.294816 0)
(0.109214 -0.294821 0)
(0.201334 -0.289839 0)
(-0.0140839 0.314184 0)
(-0.0301195 -0.0988357 0)
(-0.018291 -0.0444797 0)
(-0.0139654 -0.026546 0)
(-0.0121219 -0.0284839 0)
(-0.0116254 -0.030476 0)
(-0.0124609 -0.0334577 0)
(-0.0146125 -0.0373799 0)
(-0.0179101 -0.0417041 0)
(-0.0220372 -0.0462021 0)
(-0.0266611 -0.0509488 0)
(-0.0315847 -0.0561412 0)
(-0.0364353 -0.0619594 0)
(-0.0406913 -0.0688863 0)
(-0.0438123 -0.0777263 0)
(-0.0452938 -0.0897742 0)
(-0.044875 -0.106831 0)
(-0.0425685 -0.131479 0)
(-0.0391322 -0.167966 0)
(-0.0365811 -0.224299 0)
(-0.0565968 -0.286195 0)
(-0.117405 -0.277228 0)
(-0.105084 -0.452289 0)
(0.00375845 0.324507 0)
(-0.0124756 -0.100155 0)
(-0.0118685 -0.0482133 0)
(-0.012183 -0.0275693 0)
(-0.0127296 -0.0286252 0)
(-0.0138299 -0.0295903 0)
(-0.0157527 -0.031468 0)
(-0.0185835 -0.034306 0)
(-0.0222949 -0.0377237 0)
(-0.0267606 -0.0415647 0)
(-0.0318303 -0.0458764 0)
(-0.0373613 -0.0508364 0)
(-0.0431805 -0.056739 0)
(-0.0490612 -0.0640851 0)
(-0.0548674 -0.0736556 0)
(-0.0605355 -0.0865454 0)
(-0.0663416 -0.104212 0)
(-0.0730375 -0.128578 0)
(-0.0823588 -0.161996 0)
(-0.0976759 -0.209645 0)
(-0.134669 -0.241212 0)
(-0.134213 -0.225056 0)
(-0.204754 -0.435149 0)
(0.00236329 0.318315 0)
(0.00126457 -0.0950086 0)
(-0.00640649 -0.0456647 0)
(-0.0102579 -0.0258416 0)
(-0.012688 -0.0269787 0)
(-0.0151256 -0.0274652 0)
(-0.0180002 -0.0286388 0)
(-0.0215175 -0.0306738 0)
(-0.0257561 -0.0333141 0)
(-0.0307168 -0.0364701 0)
(-0.0363723 -0.0401912 0)
(-0.0426968 -0.0446435 0)
(-0.0496656 -0.050125 0)
(-0.0573017 -0.0570964 0)
(-0.0657225 -0.0662267 0)
(-0.0752055 -0.0783854 0)
(-0.0863224 -0.0946639 0)
(-0.100061 -0.116286 0)
(-0.118066 -0.144517 0)
(-0.142328 -0.181276 0)
(-0.181948 -0.223854 0)
(-0.169399 -0.2408 0)
(-0.190189 -0.35507 0)
(-0.00176525 0.317603 0)
(0.00475948 -0.0896327 0)
(-0.00413887 -0.0398014 0)
(-0.00914929 -0.0224248 0)
(-0.0126141 -0.0240544 0)
(-0.0159434 -0.0243821 0)
(-0.0195259 -0.0250843 0)
(-0.0236103 -0.0264808 0)
(-0.0283407 -0.0284108 0)
(-0.0338038 -0.0308336 0)
(-0.0400654 -0.0338032 0)
(-0.0472007 -0.0374648 0)
(-0.055317 -0.0420756 0)
(-0.0645897 -0.0480198 0)
(-0.0753159 -0.0558148 0)
(-0.0879729 -0.0661141 0)
(-0.103278 -0.0796746 0)
(-0.122289 -0.097317 0)
(-0.146482 -0.119817 0)
(-0.177574 -0.14773 0)
(-0.220382 -0.182989 0)
(-0.271511 -0.227843 0)
(-0.335388 -0.278118 0)
(-0.00235518 0.318493 0)
(0.00452518 -0.0854159 0)
(-0.00395937 -0.03331 0)
(-0.00892196 -0.0184094 0)
(-0.0127327 -0.0204554 0)
(-0.016504 -0.0206867 0)
(-0.0205011 -0.0210202 0)
(-0.0249564 -0.0218504 0)
(-0.0300453 -0.0230785 0)
(-0.0359072 -0.0246978 0)
(-0.0426753 -0.026758 0)
(-0.0505029 -0.0293749 0)
(-0.05959 -0.0327466 0)
(-0.0702166 -0.0371543 0)
(-0.082789 -0.0429686 0)
(-0.0978806 -0.0506384 0)
(-0.116281 -0.0606671 0)
(-0.139026 -0.0735559 0)
(-0.167489 -0.089704 0)
(-0.20341 -0.109297 0)
(-0.24915 -0.131973 0)
(-0.308437 -0.157034 0)
(-0.394522 -0.180413 0)
(-0.00268975 0.320691 0)
(0.00279455 -0.0817698 0)
(-0.00476333 -0.0272462 0)
(-0.00921631 -0.0144335 0)
(-0.0129462 -0.0166496 0)
(-0.0168084 -0.0167238 0)
(-0.0209491 -0.016696 0)
(-0.0255604 -0.0169629 0)
(-0.030826 -0.0174649 0)
(-0.0369145 -0.0182047 0)
(-0.0440026 -0.0192184 0)
(-0.0522965 -0.0205832 0)
(-0.062059 -0.0224273 0)
(-0.0736387 -0.0249293 0)
(-0.0875019 -0.0283181 0)
(-0.104262 -0.0328686 0)
(-0.124707 -0.0388769 0)
(-0.149824 -0.0466093 0)
(-0.180806 -0.0562009 0)
(-0.21901 -0.0674801 0)
(-0.265955 -0.0796378 0)
(-0.323173 -0.0906384 0)
(-0.39165 -0.0939555 0)
(-0.00280073 0.32424 0)
(0.000393272 -0.0782556 0)
(-0.00589905 -0.022042 0)
(-0.00960612 -0.0108295 0)
(-0.013017 -0.0129508 0)
(-0.0167324 -0.0127597 0)
(-0.0208015 -0.0123292 0)
(-0.0253803 -0.0120113 0)
(-0.0306366 -0.0117537 0)
(-0.0367527 -0.0115531 0)
(-0.0439266 -0.0114223 0)
(-0.0523972 -0.0113894 0)
(-0.062466 -0.0115091 0)
(-0.0745183 -0.0118604 0)
(-0.0890498 -0.0125482 0)
(-0.106688 -0.0136965 0)
(-0.128194 -0.0154405 0)
(-0.154497 -0.0178818 0)
(-0.186603 -0.021029 0)
(-0.225541 -0.0246984 0)
(-0.272068 -0.0283161 0)
(-0.326156 -0.0305577 0)
(-0.385891 -0.0284829 0)
(-0.00274828 0.328928 0)
(-0.00214405 -0.0746982 0)
(-0.00681476 -0.0179143 0)
(-0.00972631 -0.00774177 0)
(-0.0127293 -0.00953956 0)
(-0.01616 -0.00898023 0)
(-0.0200086 -0.00809506 0)
(-0.0243925 -0.00716999 0)
(-0.0294629 -0.00613248 0)
(-0.0354026 -0.00496543 0)
(-0.0424105 -0.00364201 0)
(-0.0507425 -0.00214046 0)
(-0.0607137 -0.000438219 0)
(-0.0727217 0.00147931 0)
(-0.0872698 0.00362278 0)
(-0.104981 0.00599309 0)
(-0.12661 0.00859687 0)
(-0.15302 0.0114591 0)
(-0.185209 0.0145841 0)
(-0.224052 0.0179992 0)
(-0.270109 0.0217447 0)
(-0.323014 0.0257142 0)
(-0.380402 0.0297513 0)
(-0.00261079 0.334462 0)
(-0.00417353 -0.071432 0)
(-0.00709772 -0.0148723 0)
(-0.00934237 -0.00515804 0)
(-0.0119516 -0.00648756 0)
(-0.0150359 -0.00549794 0)
(-0.0185552 -0.00413382 0)
(-0.0226058 -0.00259697 0)
(-0.0273217 -0.000794379 0)
(-0.0328723 0.00133006 0)
(-0.0394594 0.00383609 0)
(-0.0473331 0.00680345 0)
(-0.0568026 0.0103225 0)
(-0.0682512 0.0145072 0)
(-0.0821732 0.019466 0)
(-0.0991677 0.0253405 0)
(-0.119981 0.0322705 0)
(-0.14551 0.0403852 0)
(-0.176789 0.0497882 0)
(-0.214874 0.0603771 0)
(-0.260742 0.0716318 0)
(-0.314702 0.0823034 0)
(-0.375644 0.089579 0)
(-0.00233374 0.340338 0)
(-0.00523263 -0.0690793 0)
(-0.00652402 -0.0127788 0)
(-0.00835165 -0.00295837 0)
(-0.0106343 -0.00379952 0)
(-0.0133376 -0.00238388 0)
(-0.0164427 -0.000557342 0)
(-0.0200314 0.00155608 0)
(-0.0242284 0.00408047 0)
(-0.0291876 0.00710455 0)
(-0.0351038 0.0107291 0)
(-0.0422079 0.0150872 0)
(-0.0507885 0.0203328 0)
(-0.0611844 0.0266498 0)
(-0.073875 0.0342846 0)
(-0.0894008 0.0434902 0)
(-0.108496 0.0545773 0)
(-0.132078 0.06786 0)
(-0.16132 0.0835998 0)
(-0.197634 0.101822 0)
(-0.242803 0.121988 0)
(-0.298755 0.142274 0)
(-0.367193 0.158147 0)
(-0.00185805 0.345976 0)
(-0.00503174 -0.0680555 0)
(-0.00511362 -0.0112965 0)
(-0.00682344 -0.000980127 0)
(-0.008822 -0.00147099 0)
(-0.0111029 0.000300344 0)
(-0.0137068 0.00252996 0)
(-0.0167202 0.00514961 0)
(-0.020254 0.00831324 0)
(-0.0244459 0.012139 0)
(-0.0294609 0.0167705 0)
(-0.0355128 0.0223741 0)
(-0.0428301 0.0291637 0)
(-0.0517344 0.037403 0)
(-0.0626039 0.0474209 0)
(-0.0759385 0.0596338 0)
(-0.0924228 0.0745226 0)
(-0.112903 0.0926607 0)
(-0.138693 0.114664 0)
(-0.171489 0.141032 0)
(-0.213954 0.171889 0)
(-0.269983 0.206185 0)
(-0.345606 0.239769 0)
(-0.00125334 0.350584 0)
(-0.00353638 -0.0684856 0)
(-0.0032911 -0.00997619 0)
(-0.00501987 0.000842589 0)
(-0.00667547 0.000464307 0)
(-0.00846754 0.00248317 0)
(-0.0104887 0.00503386 0)
(-0.0128257 0.00806787 0)
(-0.0155779 0.0117611 0)
(-0.0188579 0.016257 0)
(-0.0227902 0.0217214 0)
(-0.0275342 0.0283584 0)
(-0.0332797 0.0364269 0)
(-0.0402664 0.0462504 0)
(-0.0487945 0.0582606 0)
(-0.0592659 0.0729758 0)
(-0.0722224 0.091089 0)
(-0.0884041 0.113453 0)
(-0.108999 0.141151 0)
(-0.135742 0.175508 0)
(-0.17164 0.217991 0)
(-0.22191 0.270048 0)
(-0.296325 0.331704 0)
(-0.000798888 0.353416 0)
(-0.0012661 -0.0697876 0)
(-0.00167685 -0.00845541 0)
(-0.00324008 0.00237506 0)
(-0.00439864 0.00192102 0)
(-0.00562313 0.00408797 0)
(-0.00698371 0.00686164 0)
(-0.00856291 0.0102109 0)
(-0.0104415 0.014308 0)
(-0.0126843 0.0193059 0)
(-0.0153872 0.0253909 0)
(-0.0186318 0.032793 0)
(-0.0225522 0.041794 0)
(-0.0272914 0.0527845 0)
(-0.0330532 0.0662334 0)
(-0.0400749 0.0827882 0)
(-0.0487101 0.103262 0)
(-0.0594402 0.128794 0)
(-0.0730623 0.16088 0)
(-0.0908271 0.201699 0)
(-0.115071 0.254398 0)
(-0.150184 0.323766 0)
(-0.205137 0.417254 0)
(-0.000787626 0.354376 0)
(0.000866424 -0.071022 0)
(-0.00061668 -0.00671352 0)
(-0.00164459 0.00333581 0)
(-0.0021445 0.00279019 0)
(-0.00272361 0.00504298 0)
(-0.00336903 0.00794887 0)
(-0.00413598 0.0115006 0)
(-0.00506567 0.0158584 0)
(-0.00619599 0.0211708 0)
(-0.00755751 0.027632 0)
(-0.00917961 0.0354831 0)
(-0.0111229 0.0450377 0)
(-0.0134001 0.0566819 0)
(-0.0161185 0.0709326 0)
(-0.0193097 0.0884775 0)
(-0.0230737 0.110208 0)
(-0.0275014 0.137382 0)
(-0.0327979 0.171779 0)
(-0.039214 0.216027 0)
(-0.0473964 0.274303 0)
(-0.0583814 0.353642 0)
(-0.0741529 0.466881 0)
(-0.000997983 0.353945 0)
(0.00224333 -0.0716755 0)
(-0.000109118 -0.00504939 0)
(-0.000241841 0.00349204 0)
(-3.79084e-06 0.00299129 0)
(9.83726e-05 0.00529962 0)
(0.000186674 0.00826037 0)
(0.000246105 0.0119001 0)
(0.00027281 0.0163623 0)
(0.000276723 0.021793 0)
(0.000275605 0.0283753 0)
(0.000299106 0.0363515 0)
(0.000383495 0.0460294 0)
(0.000583075 0.0577938 0)
(0.00098713 0.0721616 0)
(0.00172404 0.0897547 0)
(0.00299605 0.111468 0)
(0.00511794 0.138514 0)
(0.00859251 0.172591 0)
(0.0142422 0.216227 0)
(0.0235784 0.273316 0)
(0.0394112 0.350235 0)
(0.0675638 0.45829 0)
(-0.000991675 0.352415 0)
(0.00264753 -0.0713837 0)
(0.000159047 -0.00395653 0)
(0.0010221 0.00277105 0)
(0.00196975 0.0025083 0)
(0.00273014 0.00485772 0)
(0.00351737 0.00780736 0)
(0.00435473 0.0114285 0)
(0.00528377 0.0158504 0)
(0.00635443 0.0211955 0)
(0.00763713 0.0276463 0)
(0.00922035 0.035427 0)
(0.0112124 0.0448189 0)
(0.0137664 0.0561751 0)
(0.017102 0.0699356 0)
(0.0215232 0.0866839 0)
(0.0274938 0.107142 0)
(0.0356854 0.132308 0)
(0.0471514 0.163521 0)
(0.0636163 0.2026 0)
(0.0879071 0.252163 0)
(0.125273 0.315847 0)
(0.185303 0.398643 0)
(-0.000609301 0.349668 0)
(0.00235721 -0.0702422 0)
(0.000450654 -0.00376544 0)
(0.00224358 0.00126629 0)
(0.00378533 0.00140154 0)
(0.00512354 0.00377433 0)
(0.006522 0.00665956 0)
(0.00804095 0.0101664 0)
(0.00976026 0.0144008 0)
(0.0117741 0.0194874 0)
(0.0141927 0.025579 0)
(0.0171415 0.0328695 0)
(0.0208093 0.0416088 0)
(0.0254132 0.0520824 0)
(0.0312864 0.0646505 0)
(0.0388506 0.0797442 0)
(0.0487398 0.0978994 0)
(0.0618513 0.119771 0)
(0.0795242 0.146159 0)
(0.103801 0.177997 0)
(0.137946 0.216188 0)
(0.18725 0.261256 0)
(0.260178 0.312324 0)
(0.000196968 0.345337 0)
(0.00181278 -0.0685956 0)
(0.00101831 -0.00458327 0)
(0.00352259 -0.000828182 0)
(0.00549543 -0.000218086 0)
(0.00728536 0.00215708 0)
(0.00917125 0.0049308 0)
(0.0112388 0.00823498 0)
(0.0136077 0.0121655 0)
(0.0163986 0.0168296 0)
(0.0197519 0.0223606 0)
(0.0238331 0.0289261 0)
(0.0288647 0.0367036 0)
(0.0351296 0.0459186 0)
(0.0430001 0.0568184 0)
(0.0529854 0.0696841 0)
(0.0657619 0.0848225 0)
(0.0822748 0.102555 0)
(0.103861 0.123149 0)
(0.132444 0.146664 0)
(0.170819 0.172656 0)
(0.222959 0.199583 0)
(0.294152 0.223496 0)
(0.00132829 0.338739 0)
(0.00162083 -0.0668304 0)
(0.00206164 -0.00626677 0)
(0.00494871 -0.00327723 0)
(0.00716337 -0.00219749 0)
(0.00925105 0.000144162 0)
(0.0114683 0.00275577 0)
(0.0139431 0.00577826 0)
(0.0168078 0.00929753 0)
(0.0202026 0.0134097 0)
(0.0242858 0.0182265 0)
(0.0292515 0.0238664 0)
(0.0353407 0.0304646 0)
(0.042861 0.0381564 0)
(0.0522025 0.04709 0)
(0.0638623 0.0574073 0)
(0.0784842 0.0692177 0)
(0.0969256 0.0825508 0)
(0.120329 0.0972519 0)
(0.150206 0.112792 0)
(0.188489 0.128017 0)
(0.237514 0.140494 0)
(0.29958 0.145803 0)
(0.00271361 0.328786 0)
(0.00251794 -0.0651314 0)
(0.00371288 -0.00845678 0)
(0.0066038 -0.00582494 0)
(0.00885649 -0.0043574 0)
(0.0110723 -0.00210242 0)
(0.0134866 0.000282649 0)
(0.0162349 0.00294108 0)
(0.0194593 0.00595449 0)
(0.0233092 0.00940687 0)
(0.0279531 0.0133819 0)
(0.0335946 0.0179608 0)
(0.0404816 0.0232187 0)
(0.0489135 0.0292286 0)
(0.0592587 0.0360526 0)
(0.071967 0.043721 0)
(0.0875987 0.0521914 0)
(0.106858 0.0612821 0)
(0.130609 0.0705843 0)
(0.159849 0.0793415 0)
(0.195648 0.0860977 0)
(0.238968 0.0885908 0)
(0.290099 0.0831122 0)
(0.00432704 0.314171 0)
(0.00503718 -0.0632886 0)
(0.00596437 -0.0106601 0)
(0.00852389 -0.00821694 0)
(0.0106235 -0.00651905 0)
(0.0128223 -0.0044408 0)
(0.0153172 -0.00236692 0)
(0.0182364 -0.000158741 0)
(0.021716 0.00226115 0)
(0.0259054 0.00495982 0)
(0.0309735 0.00799497 0)
(0.0371203 0.0114116 0)
(0.0445815 0.0152388 0)
(0.0536325 0.0194989 0)
(0.0646037 0.0241888 0)
(0.0778837 0.0292537 0)
(0.0939358 0.0345458 0)
(0.113294 0.0397826 0)
(0.136525 0.0444719 0)
(0.16418 0.0478028 0)
(0.196677 0.048565 0)
(0.234019 0.0448327 0)
(0.275456 0.034119 0)
(0.00612276 0.293936 0)
(0.00899313 -0.0607773 0)
(0.00862177 -0.0123843 0)
(0.0106267 -0.01024 0)
(0.0124316 -0.00853625 0)
(0.0145089 -0.00676033 0)
(0.017001 -0.00510035 0)
(0.0200131 -0.0034312 0)
(0.0236651 -0.00168658 0)
(0.0280955 0.000182484 0)
(0.0334635 0.00220804 0)
(0.0399541 0.00440314 0)
(0.0477819 0.00676789 0)
(0.0571933 0.00927768 0)
(0.0684759 0.0118804 0)
(0.081952 0.0144677 0)
(0.0979869 0.0168457 0)
(0.116943 0.0187047 0)
(0.139164 0.0195825 0)
(0.164879 0.0188118 0)
(0.194088 0.0154406 0)
(0.226352 0.00823653 0)
(0.260415 -0.0043334 0)
(0.00809635 0.267981 0)
(0.0134683 -0.0570578 0)
(0.0113274 -0.0133498 0)
(0.0127104 -0.0117744 0)
(0.0141631 -0.0103219 0)
(0.0160683 -0.00899197 0)
(0.0185067 -0.00785236 0)
(0.0215511 -0.0068046 0)
(0.0252984 -0.0058007 0)
(0.029868 -0.00481304 0)
(0.0354004 -0.00383257 0)
(0.0420607 -0.00287113 0)
(0.0500375 -0.00195972 0)
(0.0595432 -0.00115166 0)
(0.0708196 -0.000531779 0)
(0.0841289 -0.00023588 0)
(0.0997356 -0.000466511 0)
(0.117894 -0.00150656 0)
(0.138794 -0.00373487 0)
(0.162492 -0.00764759 0)
(0.188806 -0.0138506 0)
(0.217129 -0.0230026 0)
(0.246191 -0.0357041 0)
(0.0101918 0.237171 0)
(0.0171793 -0.051859 0)
(0.0136476 -0.0135565 0)
(0.0144835 -0.0128186 0)
(0.0156107 -0.0118581 0)
(0.0173347 -0.011104 0)
(0.0196814 -0.0105736 0)
(0.0226899 -0.0102072 0)
(0.0264316 -0.00998157 0)
(0.0310035 -0.00989187 0)
(0.0365249 -0.00995191 0)
(0.0431375 -0.010196 0)
(0.0510031 -0.0106781 0)
(0.0603013 -0.0114735 0)
(0.0712333 -0.0126866 0)
(0.0840095 -0.0144631 0)
(0.0988358 -0.0169961 0)
(0.115898 -0.0205277 0)
(0.135317 -0.0253472 0)
(0.1571 -0.0317774 0)
(0.181059 -0.0401245 0)
(0.206684 -0.0505647 0)
(0.232981 -0.0629582 0)
(0.0119128 0.203263 0)
(0.0191358 -0.0453041 0)
(0.0151361 -0.0132525 0)
(0.0156001 -0.0134729 0)
(0.0164774 -0.0131703 0)
(0.0180206 -0.0130738 0)
(0.0202255 -0.0132014 0)
(0.0231063 -0.013539 0)
(0.0267138 -0.0140917 0)
(0.0311265 -0.0148793 0)
(0.0364453 -0.0159379 0)
(0.0427913 -0.0173222 0)
(0.0503029 -0.0191048 0)
(0.0591338 -0.0213776 0)
(0.0694556 -0.0242588 0)
(0.0814456 -0.0278982 0)
(0.0952753 -0.0324761 0)
(0.1111 -0.0381972 0)
(0.129027 -0.0452768 0)
(0.149089 -0.0539087 0)
(0.171205 -0.0641975 0)
(0.195132 -0.0760196 0)
(0.220419 -0.0887778 0)
(0.0127335 0.168438 0)
(0.0190989 -0.0380318 0)
(0.0155155 -0.012812 0)
(0.0158326 -0.0138854 0)
(0.0165501 -0.0142953 0)
(0.0179179 -0.0148726 0)
(0.0199352 -0.0156614 0)
(0.0226074 -0.0166899 0)
(0.0259742 -0.0179922 0)
(0.0301021 -0.0196127 0)
(0.035077 -0.0216078 0)
(0.0410027 -0.0240505 0)
(0.0479989 -0.0270297 0)
(0.0561978 -0.0306515 0)
(0.0657471 -0.0350448 0)
(0.0767997 -0.0403622 0)
(0.0895047 -0.0467741 0)
(0.104004 -0.0544615 0)
(0.120415 -0.0635963 0)
(0.138826 -0.0743082 0)
(0.159301 -0.0866248 0)
(0.181903 -0.100356 0)
(0.206793 -0.114882 0)
(0.0127709 0.134632 0)
(0.0174355 -0.0308462 0)
(0.0148859 -0.0125165 0)
(0.0152211 -0.0141987 0)
(0.015859 -0.0152763 0)
(0.0170713 -0.0164877 0)
(0.0188829 -0.0179045 0)
(0.0213028 -0.0195862 0)
(0.0243665 -0.0215916 0)
(0.0281311 -0.0239857 0)
(0.0326695 -0.0268434 0)
(0.0380697 -0.030253 0)
(0.0444327 -0.0343173 0)
(0.0518704 -0.0391545 0)
(0.0605073 -0.0449027 0)
(0.0704724 -0.0517171 0)
(0.0818942 -0.0597647 0)
(0.0949016 -0.0692177 0)
(0.109619 -0.0802348 0)
(0.126176 -0.0929381 0)
(0.144735 -0.107383 0)
(0.165572 -0.123511 0)
(0.189257 -0.141093 0)
(0.012272 0.103122 0)
(0.0148672 -0.0244384 0)
(0.0135349 -0.0124465 0)
(0.013961 -0.0145042 0)
(0.0145615 -0.0161491 0)
(0.0156346 -0.0179202 0)
(0.0172319 -0.0199053 0)
(0.0193688 -0.0221817 0)
(0.0220784 -0.0248255 0)
(0.0254081 -0.0279174 0)
(0.0294177 -0.0315467 0)
(0.0341785 -0.0358145 0)
(0.0397714 -0.0408345 0)
(0.046286 -0.0467346 0)
(0.0538218 -0.05366 0)
(0.0624824 -0.0617691 0)
(0.0723758 -0.0712302 0)
(0.083621 -0.0822192 0)
(0.0963499 -0.0949049 0)
(0.110724 -0.10944 0)
(0.126978 -0.125971 0)
(0.145479 -0.144664 0)
(0.166832 -0.165792 0)
(0.0114366 0.0746292 0)
(0.0120103 -0.019243 0)
(0.0116991 -0.0125519 0)
(0.012199 -0.0148415 0)
(0.0127458 -0.0169383 0)
(0.0136624 -0.0191784 0)
(0.0150134 -0.0216514 0)
(0.0168167 -0.024442 0)
(0.0191011 -0.0276369 0)
(0.0219042 -0.0313275 0)