# vtk DataFile Version 2.0
gauge_2
ASCII
DATASET POLYDATA
POINTS 85 double
0.2 0.0329993 0.005
0.2 0.0359992 0.005
0.2 0.0389992 0.005
0.2 0.0419991 0.005
0.2 0.044999 0.005
0.2 0.047999 0.005
0.2 0.0543799 0.005
0.2 0.0607609 0.005
0.2 0.0671419 0.005
0.2 0.0735228 0.005
0.2 0.0799038 0.005
0.2 0.0862847 0.005
0.2 0.0926657 0.005
0.2 0.0990467 0.005
0.2 0.105428 0.005
0.2 0.111809 0.005
0.2 0.11819 0.005
0.2 0.124571 0.005
0.2 0.130952 0.005
0.2 0.137332 0.005
0.2 0.143713 0.005
0.2 0.150094 0.005
0.2 0.156475 0.005
0.2 0.162856 0.005
0.2 0.169237 0.005
0.2 0.175618 0.005
0.2 0.181999 0.005
0.2 0.18838 0.005
0.2 0.194761 0.005
0.2 0.201142 0.005
0.2 0.207523 0.005
0.2 0.213904 0.005
0.2 0.220285 0.005
0.2 0.226666 0.005
0.2 0.233047 0.005
0.2 0.239428 0.005
0.2 0.245809 0.005
0.2 0.25219 0.005
0.2 0.258571 0.005
0.2 0.264952 0.005
0.2 0.271333 0.005
0.2 0.277714 0.005
0.2 0.284095 0.005
0.2 0.290476 0.005
0.2 0.296857 0.005
0.2 0.303238 0.005
0.2 0.309619 0.005
0.2 0.315999 0.005
0.2 0.32238 0.005
0.2 0.328761 0.005
0.2 0.335142 0.005
0.2 0.341523 0.005
0.2 0.347904 0.005
0.2 0.354285 0.005
0.2 0.360666 0.005
0.2 0.367047 0.005
0.2 0.373428 0.005
0.2 0.379809 0.005
0.2 0.38619 0.005
0.2 0.392571 0.005
0.2 0.398952 0.005
0.2 0.405333 0.005
0.2 0.411714 0.005
0.2 0.418095 0.005
0.2 0.424476 0.005
0.2 0.430857 0.005
0.2 0.437238 0.005
0.2 0.443619 0.005
0.2 0.45 0.005
0.2 0.456381 0.005
0.2 0.462762 0.005
0.2 0.469143 0.005
0.2 0.475524 0.005
0.2 0.481905 0.005
0.2 0.488286 0.005
0.2 0.494666 0.005
0.2 0.501047 0.005
0.2 0.507428 0.005
0.2 0.513809 0.005
0.2 0.52019 0.005
0.2 0.526571 0.005
0.2 0.532952 0.005
0.2 0.539333 0.005
0.2 0.545714 0.005
0.2 0.552095 0.005
POINT_DATA 85
 FIELD attributes 1
alpha.water 1 85 float
1 1 1 1 1 1 1 1 1 1 0.999999 0.987387 0.662505 0.17512 4.56981e-08 1.01869e-09 1.05103e-09 2.89333e-05 6.96564e-05 5.67929e-05 1.7042e-05 2.87368e-06 1.05431e-05 3.28335e-05 3.95679e-05 7.47943e-05 0.000144776 0.000100602 1.52438e-05 1.51359e-08 1.49378e-08 1.66873e-12 1.43146e-12 4.76853e-13 8.40484e-15 3.13379e-16 9.93984e-17 1.78008e-17 2.30046e-18 2.30843e-19 1.33255e-20 -3.27182e-20 -6.21151e-20 -3.10196e-20 -1.37199e-21 -3.72434e-22 -3.40669e-22 -3.92125e-22 -4.60608e-22 -5.10868e-22 -5.23201e-22 -4.90929e-22 -4.20076e-22 -3.26745e-22 -2.31103e-22 -1.50172e-22 -9.2815e-23 -5.89357e-23 -4.24113e-23 -3.54169e-23 -3.17747e-23 -2.82061e-23 -2.38136e-23 -1.88899e-23 -1.40052e-23 -9.63395e-24 -6.07938e-24 -3.45894e-24 -1.72348e-24 -7.13633e-25 -2.17528e-25 -3.896e-26 -4.56398e-27 -5.27045e-28 -1.10679e-28 -4.39605e-29 -1.25002e-29 -6.41338e-31 -1.12838e-32 -1.8942e-36 -2.59475e-41 -3.47846e-41 -1.46798e-41 -6.8978e-43 -1.97764e-44
