# vtk DataFile Version 2.0
gauge_2
ASCII
DATASET POLYDATA
POINTS 85 double
0.2 0.0329993 0.005
0.2 0.0359992 0.005
0.2 0.0389992 0.005
0.2 0.0419991 0.005
0.2 0.044999 0.005
0.2 0.047999 0.005
0.2 0.0543799 0.005
0.2 0.0607609 0.005
0.2 0.0671419 0.005
0.2 0.0735228 0.005
0.2 0.0799038 0.005
0.2 0.0862847 0.005
0.2 0.0926657 0.005
0.2 0.0990467 0.005
0.2 0.105428 0.005
0.2 0.111809 0.005
0.2 0.11819 0.005
0.2 0.124571 0.005
0.2 0.130952 0.005
0.2 0.137332 0.005
0.2 0.143713 0.005
0.2 0.150094 0.005
0.2 0.156475 0.005
0.2 0.162856 0.005
0.2 0.169237 0.005
0.2 0.175618 0.005
0.2 0.181999 0.005
0.2 0.18838 0.005
0.2 0.194761 0.005
0.2 0.201142 0.005
0.2 0.207523 0.005
0.2 0.213904 0.005
0.2 0.220285 0.005
0.2 0.226666 0.005
0.2 0.233047 0.005
0.2 0.239428 0.005
0.2 0.245809 0.005
0.2 0.25219 0.005
0.2 0.258571 0.005
0.2 0.264952 0.005
0.2 0.271333 0.005
0.2 0.277714 0.005
0.2 0.284095 0.005
0.2 0.290476 0.005
0.2 0.296857 0.005
0.2 0.303238 0.005
0.2 0.309619 0.005
0.2 0.315999 0.005
0.2 0.32238 0.005
0.2 0.328761 0.005
0.2 0.335142 0.005
0.2 0.341523 0.005
0.2 0.347904 0.005
0.2 0.354285 0.005
0.2 0.360666 0.005
0.2 0.367047 0.005
0.2 0.373428 0.005
0.2 0.379809 0.005
0.2 0.38619 0.005
0.2 0.392571 0.005
0.2 0.398952 0.005
0.2 0.405333 0.005
0.2 0.411714 0.005
0.2 0.418095 0.005
0.2 0.424476 0.005
0.2 0.430857 0.005
0.2 0.437238 0.005
0.2 0.443619 0.005
0.2 0.45 0.005
0.2 0.456381 0.005
0.2 0.462762 0.005
0.2 0.469143 0.005
0.2 0.475524 0.005
0.2 0.481905 0.005
0.2 0.488286 0.005
0.2 0.494666 0.005
0.2 0.501047 0.005
0.2 0.507428 0.005
0.2 0.513809 0.005
0.2 0.52019 0.005
0.2 0.526571 0.005
0.2 0.532952 0.005
0.2 0.539333 0.005
0.2 0.545714 0.005
0.2 0.552095 0.005
POINT_DATA 85
 FIELD attributes 1
alpha.water 1 85 float
0.998823 0.999887 0.999998 0.999999 1 1 0.998763 0.958505 0.920284 0.956992 0.962233 0.550037 0.108257 0.0325543 0.00972005 0.0012082 6.62535e-05 6.24834e-05 6.20869e-05 0.000159759 0.000436609 0.000811751 0.00163813 0.00396405 0.00570143 0.00564994 0.00457717 0.00271768 0.00112449 0.000210185 1.15385e-05 1.56381e-05 1.5171e-05 6.98507e-06 4.34873e-07 1.7788e-09 4.23194e-10 4.38546e-10 3.28182e-09 9.64208e-09 1.12039e-08 6.12419e-09 1.62808e-08 4.50492e-08 2.53905e-07 7.99361e-07 5.31671e-06 7.16923e-06 2.60527e-06 7.97057e-05 9.01017e-05 2.25131e-05 2.45487e-05 1.26087e-05 2.05614e-10 2.5784e-10 2.64574e-10 1.43548e-10 8.02219e-11 -6.60956e-13 -5.9826e-14 2.58403e-15 5.62517e-17 2.037e-18 2.26813e-19 1.49022e-17 7.4222e-16 7.07704e-15 2.74314e-14 4.73903e-14 3.93029e-14 2.33503e-14 1.71832e-14 9.77096e-15 6.95258e-15 6.92305e-14 9.25632e-11 4.86327e-10 8.29946e-10 9.48032e-10 2.75424e-09 2.62656e-08 2.27501e-06 2.16255e-05 4.35979e-05
