/*--------------------------------*- C++ -*----------------------------------*\
| =========                 |                                                 |
| \\      /  F ield         | OpenFOAM: The Open Source CFD Toolbox           |
|  \\    /   O peration     | Version:  v1912                                 |
|   \\  /    A nd           | Website:  www.openfoam.com                      |
|    \\/     M anipulation  |                                                 |
\*---------------------------------------------------------------------------*/
FoamFile
{
    version     2.0;
    format      ascii;
    class       volScalarField;
    location    "0.8";
    object      alpha.water;
}
// * * * * * * * * * * * * * * * * * * * * * * * * * * * * * * * * * * * * * //

dimensions      [0 0 0 0 0 0 0];


internalField   nonuniform List<scalar> 
9072
(
1
1
1
1
1
1
1
1
1
1
1
1
0.999995
0.976672
0.962329
1
0.999998
0.993532
0.993772
0.999643
0.999698
0.999999
0.999999
1
1
1
1
1
1
1
1
1
1
1
1
0.996667
0.954487
0.988401
1
1
0.999998
0.990534
0.85373
0.932882
0.999979
0.999972
1
1
1
1
1
1
1
1
1
1
1
1
0.999999
0.990212
0.988257
0.999997
1
0.989879
0.852905
0.85304
1
0.999968
1
1
1
1
1
1
1
1
1
1
1
1
1
1
1
1
1
1
0.999936
0.985369
1
1
1
1
1
1
1
1
1
1
1
1
1
1
1
1
1
1
1
1
1
1
1
1
1
1
1
1
1
1
1
0.999999
0.999997
1
1
1
1
1
1
1
1
1
1
1
1
1
1
1
1
1
1
1
1
1
0.957421
1
1
1
1
1
1
1
1
1
1
1
1
1
1
1
1
1
1
1
1
1
1
0.951542
1
1
1
1
1
1
1
1
1
1
1
1
0.999999
0.999999
0.999999
0.999999
1
1
0.939534
0.959941
0.997866
0.997866
0.997864
0.997789
0.997866
0.978996
0.978996
0.994361
0.998105
0.988035
0.601833
0.822844
0.920372
0.920608
0.895779
0.863335
0.872007
0.976669
0.99054
0.133169
0.144121
0.208539
0.710502
0.998079
0.998107
0.998107
0.998107
0.998039
0.367034
0.626671
0.562552
0.395676
0.506225
0.91171
0.881147
0.446208
0.919521
0.268819
0.0132458
0.365685
0.135077
0.00125275
0.557576
0.998107
0.998107
0.998107
0.579208
0.378331
0.363178
0.562047
0.689157
0.25501
0.879535
0.45092
0.760899
0.641331
0.0135409
0.453119
0.31686
0.000926304
0.000699468
0.328647
0.998068
0.998099
0.885199
0.345249
0.583041
0.143646
0.6889
0.666688
0.245965
0.248436
0.399016
0.805868
0.903266
0.237604
0.509046
0.0372427
0.0492906
0.0121618
0.809197
0.99699
0.959156
0.346401
0.559984
0.218897
0.0589972
0.451482
0.15579
0.861722
0.833471
0.867495
0.530958
0.906379
0.706389
0.375709
0.94665
0.947035
0.946971
0.946623
0.996489
0.611934
0.451561
0.593053
0.0415256
0.740311
0.16581
0.0648099
0.717623
0.948042
0.949403
0.503483
0.0809292
0.401409
0.923196
0.944081
0.906405
0.678193
0.385981
0.994207
0.271581
0.160723
0.59234
0.240104
0.883724
0.372493
0.0567572
0.179089
0.932881
0.949581
0.692096
0.628519
0.761489
0.319544
0.0549122
0.00475295
0.00469593
0.0601048
0.986177
0.10753
0.556758
0.226575
0.630143
0.889344
0.675579
0.0567698
0.0571109
0.0643519
0.776699
0.437839
0.457109
1
1
0.999997
0.997366
1
1
1
1
1
1
1
1
1
1
0.999996
0.999965
0.99977
0.999228
0.973635
0.900185
0.898843
0.981104
2.92151e-05
0.0814574
0.296824
0.452473
0.774104
0.995656
1
1
1
1
1
1
1
1
0.999984
0.998333
0.888773
0.256899
0.0589351
0.0591554
0.196053
0.889833
0.884267
7.71338e-07
1.50247e-05
1.34819e-05
1.78384e-05
2.40996e-05
0.00117388
0.0705183
0.225899
0.489803
0.729021
0.936594
1
1
0.999968
0.973372
0.436741
0.609979
0.581175
0.0599415
0.695481
0.681895
0.744715
0.890833
2.76972e-08
2.318e-07
3.98824e-07
3.65731e-07
2.89788e-07
5.86984e-07
6.47598e-07
1.20187e-06
9.40385e-06
0.00019023
0.00491435
0.807278
0.981325
0.997796
0.637993
0.418445
0.672932
0.582318
0.440971
0.0200462
0.00029042
0.00179647
0.68294
1.5983e-09
7.32825e-09
4.7396e-07
1.49877e-07
1.14233e-07
5.74796e-07
6.01037e-06
5.15495e-06
6.26062e-06
4.05944e-05
0.00136637
0.524078
0.985022
0.702848
0.056859
0.0571063
0.18851
0.000367166
0.000270169
0.00026514
0.000265236
0.000523654
0.000403784
2.69036e-10
6.32211e-10
8.7716e-08
1.24409e-05
1.25207e-05
6.71826e-06
1.62127e-07
2.34383e-07
4.13178e-06
0.000198198
0.00945258
0.882892
0.75869
0.0260598
0.178761
0.336265
0.189984
0.00137454
0.000308547
0.000264238
0.000263748
0.000263753
0.000262734
1.10581e-10
1.48087e-10
5.97532e-09
8.41415e-07
1.58282e-05
1.48515e-05
4.66595e-07
6.45539e-06
0.000202971
0.315651
0.563459
0.118101
0.00141698
0.0014444
0.265988
0.336474
0.335309
0.0226963
0.231821
0.000326731
0.000263597
0.000263679
0.000263064
1.09581e-10
1.17865e-10
3.3711e-09
2.9709e-08
1.41385e-07
8.52727e-06
0.000140839
0.188629
0.376203
0.281289
0.00301882
0.000657767
0.000255529
0.000259013
0.00111165
0.28569
0.331095
0.0207716
0.240701
0.243589
0.000373163
0.000363983
0.00374514
1.55759e-07
2.28824e-10
2.8256e-10
2.43409e-08
8.85321e-08
1.8376e-05
0.00136009
0.117016
0.0190217
1.1992e-05
0.00958665
0.0270348
0.00023911
0.00023855
0.000244597
0.000365596
0.205966
0.0185027
0.0187905
0.22456
0.240494
0.238446
0.102358
1.61639e-07
1.52947e-09
7.46856e-05
2.64884e-08
2.05846e-08
9.27869e-06
0.00117822
9.94863e-05
5.6988e-06
5.7558e-06
9.45171e-06
0.00817508
0.0229247
0.000238219
0.000357157
0.000708136
0.000378073
0.00432791
0.0703402
0.0703402
0.0133268
1.72735e-06
1.89846e-06
4.01209e-08
4.19323e-09
7.97672e-05
2.50927e-08
1.07187e-09
9.81934e-08
7.67786e-06
6.77163e-06
5.56021e-06
7.8135e-06
0.00294805
0.0491987
0.0319002
0.000238061
0.000238423
0.000239209
0.000239581
0.000288145
0.0336111
0.0701885
0.0700126
1.0393e-06
1.98644e-06
4.1937e-08
7.72286e-05
1.92147e-05
5.42845e-11
3.37665e-11
3.28861e-09
2.93494e-07
2.5737e-06
6.1191e-06
0.0352283
0.0506422
0.0502979
0.000250325
0.000331865
0.00365234
0.000241132
0.000240444
0.000845316
0.000375588
0.00154205
0.0669546
3.26196e-07
8.6226e-06
8.80785e-08
3.99019e-05
4.14827e-06
2.11836e-11
3.34134e-12
1.93731e-09
1.51959e-08
5.84067e-07
0.000340311
0.0507035
0.0506974
0.0350311
0.000220415
0.000449451
0.070691
0.0705845
0.000229694
0.000229761
0.000238602
0.0203858
0.0436465
1.69888e-07
5.09775e-07
5.10987e-09
2.13392e-07
1.82764e-08
3.66894e-11
2.24487e-12
1.77388e-09
1.78556e-09
1.67751e-06
0.000400776
0.00134756
6.17233e-05
3.20962e-06
3.45983e-05
0.0121026
0.0707072
0.0704829
0.000229604
0.00022973
0.000251591
0.0101756
0.0173312
1.4858e-07
7.38777e-07
1.97278e-10
9.2681e-09
1.06191e-09
4.13351e-11
1.84657e-12
4.24192e-10
7.22684e-10
3.61657e-09
1.64671e-06
1.55718e-05
1.43296e-06
1.47321e-07
4.91604e-06
0.00826644
0.0705904
0.0454209
0.000229604
0.000232104
0.00811279
0.0341916
4.28256e-08
6.5028e-08
1.1059e-05
2.17467e-11
5.55072e-10
2.77168e-10
4.81252e-12
5.63094e-13
7.85003e-11
7.09689e-10
1.01744e-09
7.24567e-08
6.24566e-07
5.47878e-07
9.56273e-08
3.85193e-08
4.38543e-05
0.0702973
0.0692734
0.000282996
0.000288033
0.0351658
0.0226172
2.59943e-08
2.6485e-07
2.61673e-10
1.04263e-12
5.39455e-11
2.27474e-11
4.49365e-13
6.80309e-14
1.62029e-11
5.12677e-10
7.93285e-10
3.0375e-09
2.04862e-08
4.05538e-09
9.9628e-10
1.23836e-09
1.06266e-06
1.05539e-05
1.10256e-05
0.0104768
0.00104833
0.0188884
0.00608256
8.98024e-08
1.45241e-07
3.83875e-09
3.04699e-14
2.54286e-12
1.01079e-12
4.15759e-14
9.48664e-15
4.66964e-12
2.42337e-10
4.33116e-10
1.23584e-10
6.70829e-10
2.08537e-10
5.26805e-10
2.73452e-10
1.02917e-09
6.28528e-07
7.34151e-06
0.00603283
0.0803315
1.19275e-05
1.21653e-09
1.21012e-08
7.46381e-09
1.25982e-08
1.2866e-16
6.127e-14
3.97184e-14
3.69148e-15
2.67375e-15
1.55019e-12
7.55485e-11
1.34009e-10
2.78463e-11
5.36522e-11
8.27803e-11
9.65753e-11
1.44248e-06
2.44709e-05
2.53577e-05
2.98751e-05
0.0820696
0.0819796
2.98683e-08
1.16412e-09
6.73265e-09
5.73577e-09
1.0926e-10
-2.58222e-15
2.16532e-15
1.16693e-15
-1.19612e-16
-6.49619e-16
3.84314e-13
1.78849e-11
3.44136e-11
3.59495e-12
4.20771e-12
1.44085e-11
1.08728e-07
6.078e-06
9.53403e-06
1.70776e-05
0.0736241
0.0820696
0.00437724
1.26448e-09
1.22775e-09
1.27945e-09
1.02913e-10
1.18423e-10
-1.35988e-13
-4.94023e-14
-8.4101e-15
-1.39025e-14
-3.43076e-14
1.35752e-15
1.36226e-12
6.01015e-12
-6.57685e-12
-5.1722e-09
-3.05673e-08
0.000534386
0.0233158
1.06938e-05
0.0796132
0.0806936
0.000653856
1.20754e-07
1.3823e-09
2.52976e-09
2.77045e-09
1.00671e-10
9.0254e-11
0.000537964
3.33033e-07
-2.53765e-11
-3.30872e-13
-2.55397e-14
-2.77872e-13
-2.20728e-10
4.23076e-11
3.86435e-08
1.07896e-05
0.00785492
0.070961
0.0710181
0.0726461
0.0340155
0.000161881
2.35684e-06
7.28908e-08
1.72447e-08
3.66457e-10
2.3613e-10
7.86641e-11
2.29833e-11
0.0122922
5.27547e-06
1.59611e-07
2.65492e-09
2.57302e-11
-1.09104e-15
-2.18228e-10
4.25525e-10
2.93767e-07
5.46928e-05
0.0530444
0.0293394
0.000154662
0.000484209
3.92021e-05
1.34674e-05
7.77578e-06
1.0073e-05
2.2976e-10
2.98322e-10
1.58929e-10
4.41061e-11
4.44358e-12
0.0122931
0.0119979
0.00857253
0.00331437
1.31801e-05
5.96265e-08
9.07509e-07
3.41469e-08
9.31323e-07
0.000110094
0.0349685
2.66016e-05
7.3116e-06
8.17103e-06
1.45131e-05
2.07426e-05
4.2502e-05
1.68743e-07
3.38035e-10
2.32531e-10
9.09635e-11
1.55834e-11
5.43667e-13
0.00960504
0.00983671
4.67176e-05
5.58244e-05
0.00232752
0.00278065
0.000117917
2.69686e-07
1.3751e-05
0.018275
0.000136637
5.2574e-06
4.03315e-06
4.28801e-06
4.12617e-05
5.36171e-05
7.82635e-06
1.11272e-08
1.88624e-08
1.88125e-10
4.64491e-11
4.46242e-12
3.18975e-14
0.0117254
0.00493431
3.33644e-05
3.42332e-05
6.26641e-05
0.00278973
0.00230202
2.63984e-06
0.000764852
0.0163557
4.85443e-05
6.69705e-05
3.94064e-06
3.95514e-06
4.24303e-06
6.33575e-05
0.000866662
0.000135117
7.81573e-09
2.83522e-10
4.53515e-11
1.59822e-12
9.95497e-16
0.00942217
0.00139318
3.28188e-05
3.32985e-05
3.53476e-05
0.000392194
0.00278948
2.27585e-05
0.00534303
0.00664752
1.88606e-05
4.25819e-06
3.94162e-06
3.9671e-06
0.000136577
0.000783471
0.000866116
3.22045e-05
4.80017e-08
3.96823e-10
4.00429e-11
4.31205e-13
1.13975e-17
0.0118484
0.00148389
3.27963e-05
3.33228e-05
0.000484181
0.002594
0.00059784
6.89775e-05
0.00411227
6.66225e-05
4.14473e-05
0.00247917
0.00698146
0.00703645
0.00141113
5.11427e-06
3.14846e-06
2.58149e-06
6.73526e-07
1.54185e-10
1.27355e-11
4.77559e-14
3.47114e-17
0.0118797
0.00112315
3.29869e-05
4.01705e-05
0.000796007
0.00209304
0.00018994
8.78857e-05
0.0080276
0.000195918
0.00183036
0.000114324
0.000644636
0.0070539
0.00368875
7.20147e-06
8.03875e-06
2.35262e-05
2.84688e-08
3.50152e-10
1.73421e-11
4.23886e-14
4.44456e-17
0.0117984
3.26995e-05
5.47557e-05
5.44082e-05
1.66794e-05
0.00115786
0.00166375
0.000138356
0.00163799
0.000294964
0.00189034
0.00124835
3.55987e-06
0.00373914
0.00701551
0.00687197
0.00271034
3.54267e-06
5.49197e-08
5.14685e-10
4.36143e-12
2.8626e-15
8.12612e-18
0.0120025
1.72853e-05
6.53693e-05
4.00903e-07
6.16861e-07
7.54108e-06
3.25019e-05
0.000136936
3.63054e-05
3.85102e-05
2.20399e-05
0.000160201
4.97803e-06
1.72309e-07
0.000143116
0.000604591
-5.36521e-08
2.05357e-09
-5.62431e-11
5.48316e-12
2.98962e-13
7.36151e-15
1.33038e-17
0.0119666
9.85314e-06
4.59663e-06
4.20681e-08
3.8081e-08
2.26678e-07
1.59458e-06
1.76075e-06
2.41181e-06
1.54313e-06
4.26777e-07
1.75087e-07
2.63822e-07
2.53807e-09
2.45866e-09
2.00037e-09
1.07994e-10
3.00745e-11
2.24911e-11
7.08226e-12
3.93805e-14
5.46114e-17
1.85547e-19
9.61307e-05
0.00810799
3.81994e-06
3.91503e-08
3.12329e-08
2.11784e-08
5.66766e-08
8.22155e-08
9.58077e-08
6.77752e-08
1.6742e-08
5.19744e-09
7.81649e-10
1.92773e-10
1.71122e-11
7.85766e-11
1.24447e-10
6.85864e-11
4.21034e-12
5.16729e-14
1.35169e-16
6.53775e-19
1.88709e-21
2.66765e-06
0.000472054
0.00177346
6.39185e-06
8.62349e-08
7.40903e-09
2.3928e-09
3.13615e-09
2.84571e-09
1.75003e-09
4.87579e-10
2.18601e-10
1.56902e-10
4.20665e-11
7.85786e-12
9.84354e-12
6.70834e-12
1.09831e-12
4.16426e-14
4.02216e-16
8.49585e-19
3.85758e-21
1.0483e-23
1.15757e-07
2.68561e-05
2.92211e-05
2.93585e-05
8.17193e-08
1.87818e-09
3.74736e-10
2.50178e-10
1.8124e-10
1.51112e-10
6.46546e-11
2.04782e-11
1.40109e-11
9.39736e-12
1.30271e-12
1.6429e-13
3.73085e-14
4.14462e-15
1.77978e-16
1.7747e-18
5.28994e-21
1.12898e-23
2.84219e-26
5.02369e-09
2.12889e-06
1.9548e-06
3.24639e-07
3.97544e-08
5.83778e-10
1.28981e-10
6.99483e-11
5.15515e-11
2.9833e-11
1.18357e-11
3.71161e-12
1.67983e-12
7.26354e-13
1.25312e-13
5.19174e-15
2.49747e-16
2.26882e-17
8.87794e-19
6.97203e-21
2.03085e-23
2.49342e-26
5.48662e-29
9.98469e-11
1.21702e-07
9.78785e-08
1.52452e-08
1.38113e-09
1.73666e-10
2.35404e-11
1.03076e-11
6.07741e-12
3.18202e-12
1.30416e-12
3.83562e-13
9.64578e-14
2.37428e-14
3.66294e-15
1.75631e-16
4.34963e-18
1.38384e-19
3.07376e-21
1.96825e-23
4.64942e-26
3.77788e-29
4.13471e-32
1.89839e-12
5.2125e-09
3.88399e-09
6.5945e-10
1.28203e-10
1.26215e-11
1.96796e-12
8.7935e-13
4.14479e-13
1.75455e-13
6.0194e-14
1.6145e-14
3.40363e-15
5.90055e-16
7.11804e-17
3.388e-18
6.44426e-20
9.11551e-22
9.93518e-24
4.31999e-26
6.37895e-29
3.94643e-32
-8.12771e-37
8.21651e-14
9.87489e-11
6.28416e-11
3.4377e-11
5.69164e-12
4.60855e-13
1.18328e-13
5.30258e-14
2.14468e-14
7.65095e-15
2.21115e-15
5.0586e-16
9.03398e-17
1.20285e-17
1.0507e-18
4.17079e-20
6.63825e-22
5.81639e-24
3.18424e-26
7.85998e-29
5.56376e-32
2.75266e-35
-5.37674e-33
1.90393e-15
8.87677e-12
4.17616e-12
7.11013e-13
1.0807e-13
1.39923e-14
5.68363e-15
2.45727e-15
8.73301e-16
2.66762e-16
6.61479e-17
1.28862e-17
1.91441e-18
2.02154e-19
1.32225e-20
4.07073e-22
5.19891e-24
3.18571e-26
9.6216e-29
1.13411e-31
3.61851e-35
3.45913e-54
-2.72298e-33
2.53159e-17
2.97161e-13
1.09529e-13
1.50041e-14
2.27422e-15
4.28521e-16
2.24756e-16
9.1295e-17
2.88289e-17
7.62164e-18
1.62864e-18
2.71364e-19
3.36184e-20
2.84914e-21
1.43278e-22
3.36993e-24
3.29953e-26
1.42298e-28
2.52768e-31
1.46762e-34
1.63403e-38
-2.28635e-38
-5.96958e-34
4.43793e-18
5.36185e-15
1.53329e-15
2.37879e-16
3.7833e-17
9.03725e-18
6.31045e-18
2.55363e-18
7.43037e-19
1.75644e-19
3.31872e-20
4.84087e-21
5.07951e-22
3.48031e-23
1.35251e-24
2.4036e-26
1.74049e-28
5.09909e-31
5.3069e-34
1.47744e-37
-2.32607e-46
-1.65979e-39
-2.28784e-35
0.998161
0.997325
0.995407
0.992643
0.0900227
0.0874133
0.0874181
0.106012
0.886224
0.37731
0.077649
0.0792868
0.459079
0.0774294
0.0786065
0.0865625
0.47407
0.710316
0.707867
0.707749
0.000260615
0.000262138
0.000304766
0.000780539
0.000262489
0.000256655
0.000255123
0.00025824
0.000260577
0.000262276
0.000341096
0.000276488
0.228467
0.217844
0.0290493
0.19771
3.46922e-06
0.0189827
0.0900652
6.16995e-05
3.30065e-06
0.000141138
0.000324904
0.000324904
4.21655e-06
4.27741e-06
4.90838e-06
1.58152e-05
7.12691e-06
4.98933e-06
4.38313e-05
0.000269052
0.000200391
0.000200391
0.000131917
2.91035e-05
0.000173074
2.3598e-10
2.33223e-10
2.31328e-10
4.38794e-10
2.36618e-10
3.71522e-10
5.78836e-10
6.9652e-10
3.02946e-10
1.65313e-10
1.18478e-10
1.76804e-10
2.28208e-10
1.27966e-10
5.06554e-11
1.75403e-10
1.36709e-10
6.88408e-11
2.57654e-11
9.28641e-11
5.80853e-11
2.92501e-11
8.86006e-12
3.60371e-11
1.50861e-11
6.55262e-12
2.01691e-12
7.52327e-12
2.66067e-12
7.83387e-13
2.36043e-13
7.43439e-13
2.69231e-13
5.82194e-14
1.44188e-14
3.54426e-14
1.46956e-14
2.94052e-15
5.98472e-16
7.99121e-16
4.45344e-16
1.14679e-16
2.66264e-17
1.09673e-17
6.97806e-18
2.65868e-18
9.32048e-19
2.75869e-19
1.89375e-19
7.61343e-20
2.21655e-20
4.74878e-20
4.15426e-20
1.55713e-20
1.3962e-21
4.0241e-20
1.46742e-20
2.60369e-21
5.93083e-23
3.47997e-20
6.45125e-21
9.09854e-23
4.95144e-26
2.43461e-20
9.11204e-22
9.30806e-25
1.50297e-26
1.10624e-21
5.53654e-24
1.19719e-26
1.01171e-26
8.65154e-24
3.30622e-26
1.15406e-28
2.44512e-25
3.80233e-26
1.48002e-28
-1.41997e-31
1.09491e-23
7.81212e-29
-6.0588e-32
-1.75842e-29
5.14703e-23
7.81004e-32
-1.70539e-30
-4.67746e-29
7.80058e-23
-4.88893e-31
-3.23848e-30
-1.05051e-28
6.17934e-23
-6.20773e-31
-4.31208e-30
-1.89696e-28
3.98138e-23
-4.55073e-31
-4.94619e-30
-2.39525e-28
7.71046e-22
-1.98575e-31
-4.21978e-30
-1.68777e-28
1.42754e-21
-4.07351e-32
-1.81095e-30
-4.20268e-29
2.70534e-22
-1.98209e-33
-1.4391e-31
-4.1189e-31
-7.92702e-29
0.983637
0.327701
0.344138
0.252402
0.00484302
0.00488067
0.702861
0.969003
0.0991612
0.224076
0.173215
0.25349
0.881438
0.695677
0.599531
0.509888
0.415689
0.355949
0.867878
0.131218
0.615448
0.371315
0.0116418
0.0657771
0.922941
0.984207
0.704261
0.0987722
0.557549
0.19878
0.96765
0.745677
0.0484965
0.17306
0.709543
0.18544
0.188988
0.392755
0.0815848
0.236172
0.45031
0.73342
0.993681
0.993887
0.992167
0.184376
0.306892
0.537655
0.971969
0.949731
0.558926
0.048461
0.0394934
0.666024
0.710439
0.303823
0.838532
0.536164
0.86812
0.867704
0.670348
0.622959
0.80138
0.928647
0.742153
0.479601
0.901437
0.971812
0.871439
0.00375061
0.00534082
0.112252
0.501777
0.0611546
0.364893
0.168844
0.536692
0.338873
0.530473
0.580156
0.240547
0.860303
0.935328
0.936117
0.936894
0.575037
0.453919
0.809676
0.0017625
0.0016491
0.00164684
0.0908653
0.064883
0.558087
0.0503645
0.00477834
0.598094
0.658155
0.357107
0.527443
0.111993
0.0796613
0.0928681
0.00143784
7.44288e-05
8.18964e-05
0.0464567
0.414062
0.00166594
0.00164608
0.0368913
0.43521
0.00383082
0.00372962
0.000280068
0.000530046
0.2899
0.609383
9.19493e-05
8.16372e-05
0.00106547
0.000171927
9.23792e-05
0.000700005
9.43058e-05
8.99927e-05
0.000105274
0.434074
0.435018
0.164865
0.0064364
0.00814313
0.00380489
0.000284363
0.00177714
0.122795
0.0242106
8.10188e-05
0.000294299
0.00745187
0.00745826
0.00751116
0.00759296
0.0076024
0.000152923
0.000456692
0.00192043
0.000837464
0.00519847
0.004256
0.0133979
0.0194015
0.197653
0.205138
0.123095
8.28696e-05
8.09143e-05
8.30746e-05
0.00701514
0.00741673
0.00338223
0.0051562
0.0076024
0.000412101
0.00154183
3.78146e-06
6.41496e-05
9.69292e-05
0.000119574
1.87667e-06
0.00121836
6.71688e-05
8.55665e-05
0.000982058
0.0028372
0.00227884
0.00277096
2.83918e-08
2.84191e-08
3.74685e-08
2.1457e-06
0.00759279
0.00082987
0.00138338
6.56479e-07
2.50432e-07
1.99491e-07
0.00027468
6.02512e-07
0.00141351
0.000155553
0.000520588
0.00230147
9.03929e-06
0.000675921
2.85076e-08
2.83918e-08
2.83935e-08
2.91973e-08
5.41994e-07
0.0052807
0.000294728
0.00106804
0.00100604
2.50433e-07
2.12357e-07
8.34933e-08
4.86637e-07
1.29979e-05
0.000144613
0.000221937
3.42186e-05
6.63439e-05
4.13439e-05
2.86172e-08
2.84088e-08
2.84104e-08
4.34056e-08
9.96443e-07
0.00251048
1.38341e-06
2.48264e-06
0.00108358
0.000162303
2.78276e-07
7.72259e-08
8.66042e-08
0.000825776
0.000271477
0.000194966
7.32117e-05
0.000113569
0.000123212
2.59852e-08
4.68623e-08
2.85108e-08
3.34503e-08
0.000192095
0.00100752
0.000187804
2.83846e-06
8.13016e-07
8.5112e-08
1.17055e-07
3.55971e-08
1.72711e-07
0.00139804
2.17003e-10
2.07874e-10
2.66671e-10
9.0181e-11
8.27173e-11
2.59391e-08
4.31397e-09
9.3713e-08
1.15584e-07
5.04002e-05
0.00124885
0.00298481
1.76061e-07
1.25644e-07
3.12484e-08
3.11425e-08
8.29997e-06
2.50458e-06
0.00106432
3.54971e-10
7.30908e-10
1.39804e-09
3.5189e-10
7.19163e-11
7.58785e-11
3.75705e-09
9.04562e-08
4.62933e-06
0.000103028
7.69743e-05
0.00301185
5.02132e-08
3.12569e-08
3.11429e-08
3.11422e-08
8.34661e-06
0.000694589
0.000560659
5.84126e-10
2.66795e-10
4.91681e-10
7.19311e-11
1.98823e-11
5.98046e-11
1.50475e-08
3.72101e-08
2.91139e-08
0.000413766
0.000236209
0.000110003
0.00312233
0.00258071
0.00105258
2.00984e-07
1.46068e-06
0.00160741
0.000579732
7.97989e-11
1.77281e-11
1.3354e-11
7.80049e-12
2.79939e-12
1.2036e-11
1.89236e-08
4.86787e-08
1.25731e-08
0.000207365
0.000592407
2.66344e-05
2.48116e-05
0.00175849
0.00481495
0.001956
1.64184e-06
0.0016099
0.00726901
1.85496e-11
3.32989e-12
2.25144e-12
1.42575e-12
2.92178e-13
4.05505e-11
1.27892e-10
8.0697e-09
1.81162e-09
0.000133717
0.000378338
0.000219856
2.46905e-05
0.000822181
0.00030179
0.00190736
4.85265e-05
0.000743784
0.0532841
7.85024e-12
5.2042e-13
1.96975e-13
1.13794e-13
2.18045e-14
8.52852e-12
2.82511e-10
1.23376e-10
5.0056e-09
8.90759e-07
5.10489e-10
0.00024589
2.54556e-05
0.00106266
0.000433735
0.0011441
0.00038334
0.00279882
0.00499051
1.98074e-12
6.6847e-14
1.49296e-14
7.88433e-15
1.57591e-15
1.68036e-13
7.65201e-11
7.51308e-10
4.74101e-08
3.15203e-08
4.70665e-10
0.000244166
3.12442e-05
2.70522e-05
0.000412458
0.00203153
0.000470509
0.00097595
0.00318868
3.38299e-13
4.17767e-15
8.4143e-16
5.41495e-16
6.52168e-16
2.44929e-14
6.96251e-12
5.98049e-11
4.27272e-08
2.71458e-08
3.71043e-10
0.000241997
4.14962e-05
5.03209e-05
3.14926e-05
0.00179341
0.00029578
0.0001689
0.00067647
3.5895e-14
1.35025e-16
3.24928e-17
2.35373e-16
3.2188e-15
3.23239e-13
1.63523e-11
2.92071e-10
2.48444e-10
3.21886e-10
0.000174374
0.000160687
0.000183522
4.06898e-05
0.000630503
0.000744251
4.86573e-06
1.74469e-05
0.00117504
2.33652e-15
2.84419e-18
1.99169e-18
8.11794e-16
1.40845e-14
1.58875e-12
6.64969e-11
5.29001e-10
6.79124e-10
3.26422e-10
8.58561e-07
1.23748e-07
0.000263521
4.33189e-05
0.000476667
6.30672e-06
3.79794e-06
6.44738e-05
0.00137059
1.10592e-16
1.08688e-19
1.68952e-18
1.32018e-15
3.69637e-14
6.74462e-12
1.07155e-10
5.02534e-10
8.5313e-10
4.60889e-10
8.42738e-09
1.43742e-07
0.000157038
0.000109468
0.00392621
0.002944
0.000637907
0.00269035
0.000406618
4.33213e-18
1.52003e-20
5.13548e-18
1.38177e-15
4.49465e-14
3.23254e-11
4.70218e-10
3.66078e-09
1.50107e-09
4.52444e-07
4.32569e-06
2.07714e-07
1.09852e-05
0.000731159
0.00283989
1.35037e-06
2.41946e-06
0.000904576
0.00102985
1.24584e-19
1.19015e-20
5.16273e-17
1.39818e-15
4.33512e-15
2.80126e-11
2.35933e-08
2.03579e-06
5.76098e-08
4.27902e-06
4.32569e-06
4.32329e-06
1.38015e-07
0.00123113
0.00444077
1.0524e-06
1.0524e-06
4.68067e-06
0.000217172
2.35781e-21
1.41712e-19
1.0662e-15
3.44139e-15
2.82486e-15
1.36636e-09
2.64927e-05
3.71044e-05
3.33107e-05
3.17387e-07
1.06643e-06
2.11981e-06
1.20258e-07
1.20827e-07
0.00444697
0.00185929
3.72412e-05
0.00126552
0.00127524
2.52136e-23
3.3799e-18
2.24936e-14
3.62684e-14
2.86813e-14
9.93615e-06
3.71131e-05
3.65162e-05
5.59768e-07
3.99891e-07
2.87378e-07
2.64898e-07
1.15142e-05
7.15408e-07
0.000400122
0.00279429
5.64589e-05
0.00293176
0.00357778
2.29426e-25
7.55296e-17
4.54237e-13
1.69808e-13
2.06468e-13
3.64451e-05
2.8017e-05
7.60888e-07
7.17442e-07
9.74772e-07
1.56938e-06
3.76216e-07
2.66279e-05
2.68557e-05
9.24177e-06
1.27953e-05
8.4401e-05
0.000311601
1.92754e-05
4.2902e-26
1.68363e-15
6.1461e-12
2.14784e-13
8.51089e-11
2.14457e-05
2.35067e-06
1.12251e-06
2.18422e-06
0.000732011
0.00189676
0.000147933
1.00766e-05
9.71966e-06
3.8348e-05
0.000276372
0.000105913
0.000102428
7.66072e-05
3.57689e-24
4.19052e-14
4.25041e-11
3.26891e-13
6.51487e-07
2.19466e-07
0.000165302
0.000384765
0.000209364
0.00231099
0.00234878
0.00234601
0.00163409
6.73964e-05
0.000385594
0.000631994
0.000377859
0.00119204
0.000790547
-1.22885e-26
9.97223e-13
1.64866e-10
4.17411e-12
1.06738e-07
3.27576e-07
0.00225967
0.00296466
0.00102174
1.21989e-06
7.23813e-06
0.000342151
0.0023078
0.00131903
0.000228109
0.000205459
0.000223658
0.00117183
7.57683e-06
3.80146e-25
9.54522e-12
2.73813e-10
4.7733e-10
3.6693e-08
0.000158417
0.000433923
0.00209851
5.15191e-07
1.66358e-05
0.000330092
1.17088e-08
1.05542e-08
0.00116234
0.00183976
0.00174204
0.00141572
1.10301e-08
3.87579e-06
-7.67947e-24
3.08108e-11
2.38879e-10
6.83158e-10
0.000112225
0.000375601
1.11492e-06
6.04456e-07
5.47196e-07
7.02454e-07
0.000328399
2.35031e-09
5.1439e-11
1.35463e-11
8.1133e-13
8.1133e-13
4.28373e-12
1.77389e-09
3.66613e-05
1.51281e-15
4.55507e-11
1.01222e-10
1.47671e-05
0.0003741
0.000354573
1.1184e-06
2.22234e-05
6.68797e-06
7.98716e-05
1.46754e-10
4.36975e-09
2.88255e-08
5.82604e-10
1.56907e-11
4.27526e-12
6.06519e-12
-7.38274e-14
-5.42518e-14
6.78505e-14
3.39702e-11
9.56769e-12
8.96198e-05
0.000363784
6.81824e-06
7.12746e-06
2.97078e-05
4.96541e-05
0.000104235
2.78581e-11
3.24847e-09
9.86355e-09
2.54198e-10
9.22538e-12
6.8641e-13
9.67625e-13
-1.007e-13
-1.95042e-13
2.93219e-13
5.82177e-12
1.02593e-12
1.25691e-05
3.92511e-05
3.04302e-05
4.94058e-05
3.88473e-05
1.93889e-05
0
4.52949e-08
2.67552e-19
5.76775e-15
1.46421e-12
1.60132e-13
1.75016e-15
4.61066e-15
-6.4869e-14
-1.17357e-13
3.97214e-13
1.25148e-12
-1.99373e-13
2.26968e-07
3.26325e-07
3.05481e-05
3.62247e-12
4.9328e-17
6.93432e-21
-1.48778e-19
-1.07317e-18
-3.00457e-24
2.16831e-15
6.66416e-15
6.60626e-15
-4.21043e-19
-3.72799e-16
-1.95642e-14
-3.40424e-14
1.47393e-13
1.25589e-13
-2.5335e-15
3.44953e-07
6.01771e-05
9.30877e-09
3.20478e-10
-1.62639e-15
2.46433e-18
-6.10893e-20
-4.43744e-19
-2.23917e-23
4.44513e-18
2.61656e-17
5.48011e-17
-2.59298e-19
-4.05315e-17
-2.78093e-15
-4.90492e-15
2.75518e-15
2.65288e-15
-1.75061e-18
-3.90465e-16
0.000173226
3.37502e-05
2.52528e-08
2.91015e-11
2.67629e-16
-4.70722e-21
-4.4769e-20
-8.76617e-22
1.73417e-22
4.57685e-21
1.29008e-20
-5.71948e-21
-1.27431e-18
-1.43626e-16
-2.79468e-16
4.13506e-18
6.61004e-19
-3.11011e-18
-3.65862e-15
-7.18112e-15
0.000136961
5.30994e-05
1.90074e-11
2.03801e-14
-1.0628e-26
-3.42703e-25
-7.7044e-24
-7.01964e-24
-1.41248e-26
-2.43506e-26
-1.2523e-23
-4.85127e-21
-1.10655e-18
-2.69044e-18
-1.60435e-26
-1.52015e-26
-1.14654e-19
-1.35183e-15
-2.54452e-14
-8.77702e-16
1.95288e-05
8.46881e-12
5.39144e-18
-4.10852e-29
-1.88915e-29
-1.8537e-30
-3.60307e-31
-2.05815e-33
-2.29435e-30
-1.29342e-27
-2.6961e-25
-1.84166e-23
-1.28817e-24
1
1
1
1
1
1
1
1
1
1
1
1
0.997832
0.959588
0.993659
1
0.997838
0.993532
0.999643
0.999673
0.999728
0.999999
0.999999
1
1
1
1
1
1
1
1
1
1
1
0.999993
0.961453
0.954724
1
1
1
0.999974
0.895305
0.8541
1
0.999865
1
1
1
1
1
1
1
1
1
1
1
1
1
0.998938
0.982531
0.997799
1
0.999993
0.87455
0.852905
0.988687
1
0.999826
1
1
1
1
1
1
1
1
1
1
1
1
1
1
1
1
1
1
0.996001
0.99393
1
1
1
0.999997
1
1
1
1
1
1
1
1
1
1
1
1
1
1
1
1
1
1
1
1
1
1
0.999997
1
1
1
0.999988
1
0.999999
1
1
1
1
1
1
1
1
1
1
1
1
1
1
1
1
1
1
1
1
1
0.9765
0.999998
1
1
1
1
1
1
1
1
1
1
1
1
1
1
1
1
1
1
1
1
0.987292
0.961305
1
1
1
1
1
1
1
1
1
1
1
1
0.999999
0.999999
0.999999
1
1
1
0.935449
0.997866
0.997866
0.997866
0.997846
0.997842
0.986834
0.978996
0.989544
0.998105
0.9981
0.712336
0.715024
0.859325
0.920608
0.920608
0.863335
0.894169
0.797149
0.978218
0.699631
0.0780394
0.181017
0.395467
0.943371
0.998107
0.998107
0.998107
0.998107
0.753818
0.375919
0.626823
0.588634
0.399839
0.863325
0.911028
0.462083
0.732472
0.842551
0.0118827
0.0943628
0.358968
0.00299873
0.00548593
0.989464
0.998107
0.998107
0.988515
0.350801
0.633319
0.368192
0.68906
0.313192
0.290273
0.869414
0.395545
0.816054
0.0884049
0.0118827
0.454486
0.00105362
0.0012174
0.000690764
0.969223
0.998103
0.997821
0.362246
0.463357
0.306547
0.695654
0.68906
0.509734
0.245965
0.546052
0.464762
0.788033
0.0276203
0.578331
0.0537946
0.0577297
0.0257084
0.160396
0.996735
0.997628
0.555399
0.353907
0.346806
0.0394965
0.731926
0.0741207
0.649176
0.796211
0.849854
0.93277
0.421566
0.907856
0.378669
0.812132
0.947035
0.947163
0.930431
0.991456
0.991921
0.165397
0.593053
0.537946
0.0408771
0.85108
0.0595436
0.0855283
0.946119
0.949132
0.949534
0.372689
0.558822
0.71556
0.936186
0.942542
0.850663
0.266941
0.834231
0.9135
0.159722
0.493194
0.590024
0.367345
0.872055
0.0571347
0.0626949
0.524773
0.9495
0.949545
0.375086
0.620992
0.676703
0.14178
0.00493054
0.00469593
0.00469593
0.821821
0.796099
0.134336
0.573427
0.293519
0.889531
0.579332
0.299522
0.0567753
0.0591928
0.213926
0.949368
0.979037
1
1
1
0.999042
1
1
1
1
1
1
1
1
1
1
0.999999
0.999986
0.99991
0.999672
0.992023
0.939765
0.877133
0.940808
0.99846
0.0107746
0.190362
0.377783
0.577148
0.93077
1
1
1
1
1
1
1
1
0.999998
0.999879
0.960885
0.6416
0.0670461
0.0589206
0.0612189
0.731908
0.891466
0.344491
7.74523e-06
1.57818e-05
1.49804e-05
2.64858e-05
6.34656e-06
0.0248127
0.134544
0.347395
0.618794
0.835042
0.999547
1
0.999997
0.999652
0.645503
0.453201
0.672048
0.0952724
0.260093
0.695481
0.627174
0.891466
0.889973
1.92401e-07
2.50244e-07
4.82955e-07
3.07095e-07
5.22412e-07
5.87381e-07
8.2182e-07
2.69138e-06
4.0547e-05
0.000941123
0.172541
0.984832
0.9924
0.985959
0.290524
0.673027
0.655764
0.620987
0.137692
0.000282956
0.000450309
0.127332
0.850532
6.63228e-09
5.4307e-08
3.50976e-07
1.28186e-07
1.14623e-07
4.82118e-06
6.00847e-06
5.15657e-06
1.08641e-05
0.000219634
0.0279604
0.981215
0.985231
0.0982057
0.0566988
0.0853205
0.167713
0.000321457
0.000268113
0.000264778
0.000269251
0.000819214
0.0229972
4.87288e-10
1.76805e-09
4.48529e-06
1.27304e-05
1.34838e-05
2.43106e-07
1.62127e-07
7.12617e-07
2.51883e-05
0.00085039
0.371844
0.949378
0.143328
0.0428734
0.336455
0.334649
0.00212407
0.000397047
0.000263775
0.000263907
0.000262853
0.000263845
0.000259493
1.25398e-10
2.35361e-10
5.85489e-08
6.56918e-06
1.60512e-05
4.22699e-06
2.94658e-06
0.00016228
0.0103403
0.550504
0.560786
0.0243784
0.000861717
0.04845
0.336512
0.336428
0.254444
0.096423
0.0732152
0.000261732
0.000262341
0.000263362
0.000260071
1.09581e-10
1.22215e-10
3.35272e-08
4.74866e-08
1.14884e-06
2.04769e-05
0.00541561
0.363917
0.398372
0.0221623
0.00142164
0.000297943
0.00024554
0.000380363
0.0309763
0.334503
0.265471
0.0751445
0.242145
0.104447
0.000278643
0.00208191
0.0022921
1.70426e-10
2.0848e-10
9.83516e-08
2.26549e-08
1.33131e-06
0.000185547
0.0528697
0.0849055
0.000320223
4.54543e-05
0.0268762
0.0184859
0.000238327
0.000239273
0.00027106
0.047466
0.147431
0.0182808
0.0506174
0.242347
0.239884
0.165083
0.228108
5.29652e-08
1.9163e-05
2.57262e-08
2.87206e-09
4.76987e-07
0.000141458
0.000282158
5.7022e-06
5.70212e-06
6.28689e-06
3.14923e-05
0.0458038
0.000238206
0.000238791
0.000728173
0.000276861
0.000560091
0.0545524
0.070383
0.0406939
0.00443076
1.92135e-06
2.14282e-06
3.57332e-08
8.16912e-05
4.10092e-07
1.05076e-10
1.34439e-08
9.40581e-07
1.11791e-05
5.83057e-06
5.74003e-06
4.57617e-05
0.034263
0.0484263
0.000238104
0.000238151
0.000238918
0.000239
0.000245781
0.000583592
0.0615163
0.0701005
0.0457907
1.46495e-06
3.72505e-06
1.66578e-06
8.28993e-05
2.67439e-09
3.68451e-11
2.42831e-10
4.09172e-08
9.42276e-07
3.58741e-06
0.00146127
0.0507061
0.0505685
0.0334244
0.000238263
0.00221723
0.00258826
0.000239371
0.000683213
0.000668788
0.00044471
0.0484356
0.0197786
9.9054e-07
9.11978e-06
9.15439e-06
3.89608e-05
1.08727e-09
1.05755e-11
7.01797e-11
4.33168e-09
7.32803e-08
1.35624e-05
0.0272984
0.0507235
0.0504689
0.00010679
0.000266153
0.0204902
0.0706488
0.0283171
0.000229711
0.000230641
0.000319138
0.0559276
1.98881e-07
2.75887e-07
2.5207e-06
2.92268e-08
1.43877e-07
7.95696e-09
2.54182e-12
1.55727e-10
8.88805e-10
2.77526e-08
3.6217e-05
0.00125341
0.00150948
4.64714e-06