/*--------------------------------*- C++ -*----------------------------------*\
| =========                 |                                                 |
| \\      /  F ield         | OpenFOAM: The Open Source CFD Toolbox           |
|  \\    /   O peration     | Version:  v1912                                 |
|   \\  /    A nd           | Website:  www.openfoam.com                      |
|    \\/     M anipulation  |                                                 |
\*---------------------------------------------------------------------------*/
FoamFile
{
    version     2.0;
    format      ascii;
    class       surfaceScalarField;
    location    "0.8";
    object      alphaPhi0.water;
}
// * * * * * * * * * * * * * * * * * * * * * * * * * * * * * * * * * * * * * //

dimensions      [0 3 -1 0 0 0 0];
oriented        oriented;


internalField   nonuniform List<scalar> 
17936
(
-1.09981e-06
3.13179e-06
-2.03198e-06
2.6817e-06
-4.02132e-06
1.33962e-06
5.16456e-06
-6.48985e-06
1.32529e-06
8.08471e-06
-9.45579e-06
1.37107e-06
9.98752e-06
-9.80401e-06
-1.8351e-07
9.54841e-06
-9.58178e-06
3.33677e-08
9.87936e-06
-1.04257e-05
5.46333e-07
1.11794e-05
-1.2035e-05
8.55636e-07
1.2891e-05
-1.36903e-05
7.9931e-07
1.44147e-05
-1.50658e-05
6.51058e-07
1.56466e-05
-1.61633e-05
5.16769e-07
1.66403e-05
-1.70699e-05
4.29576e-07
1.72579e-05
-1.68676e-05
-3.89696e-07
1.59091e-05
-1.50114e-05
-3.77208e-07
1.60907e-05
-1.82055e-05
1.91288e-06
1.93227e-05
-1.71078e-05
-2.21495e-06
1.29454e-05
-8.28309e-06
-4.66228e-06
4.03258e-06
-1.36206e-06
-2.67117e-06
1.23715e-06
-5.39896e-06
4.13463e-06
1.24437e-05
-1.68152e-05
4.37548e-06
1.54577e-05
-1.12833e-05
-4.17346e-06
7.07601e-06
-3.70535e-06
-3.37066e-06
1.23823e-06
3.49119e-07
-1.58735e-06
-5.31321e-06
7.37421e-06
-2.061e-06
3.71318e-06
-4.94031e-06
-2.74049e-06
3.96763e-06
6.47684e-06
-8.33528e-06
-2.9922e-06
4.85063e-06
1.0164e-05
-1.13947e-05
-2.16731e-06
3.39798e-06
1.15568e-05
-1.08625e-05
6.78753e-07
-1.37308e-06
1.01342e-05
-9.94609e-06
-1.09228e-07
-7.89048e-08
1.02048e-05
-1.07345e-05
-1.39305e-06
1.92273e-06
1.14361e-05
-1.22253e-05
-1.83805e-06
2.62727e-06
1.3046e-05
-1.38566e-05
-1.61575e-06
2.42634e-06
1.46227e-05
-1.5319e-05
-1.31482e-06
2.01112e-06
1.59325e-05
-1.64635e-05
-1.12685e-06
1.65786e-06
1.69387e-05
-1.74615e-05
-1.01824e-06
1.54115e-06
1.82618e-05
-1.92887e-05
-4.21431e-07
1.73047e-06
2.02779e-05
-2.16016e-05
-1.26084e-06
2.53698e-06
2.1785e-05
-2.09657e-05
-1.21517e-06
-3.79546e-07
1.87161e-05
-1.6807e-05
5.15009e-06
-7.05919e-06
1.56368e-05
-1.51986e-05
7.36721e-06
-7.8054e-06
1.54371e-05
-1.64507e-05
3.03123e-06
-2.0176e-06
1.79037e-05
-1.7213e-05
-8.04406e-06
7.67734e-06
1.33693e-05
-9.75923e-06
-2.0422e-06
-1.60801e-06
7.13855e-06
-5.05035e-06
7.47255e-06
-1.09002e-05
2.97884e-06
-1.76194e-06
5.70593e-06
-6.9225e-06
1.02164e-06
-5.17544e-07
2.61723e-06
-3.1214e-06
-9.26845e-06
1.10131e-05
-1.74461e-06
3.19337e-06
-4.53059e-06
-5.17755e-06
6.51477e-06
6.59969e-06
-9.4357e-06
-7.16349e-06
9.9995e-06
1.23611e-05
-1.42049e-05
-5.078e-06
6.92176e-06
1.41789e-05
-1.28239e-05
2.44878e-06
-3.80373e-06
1.13717e-05
-1.06933e-05
5.17308e-07
-1.19572e-06
1.07615e-05
-1.11552e-05
-2.32099e-06
2.71463e-06
1.17183e-05
-1.23981e-05
-3.32054e-06
4.0004e-06
1.31375e-05
-1.3894e-05
-3.2237e-06
3.98028e-06
1.46216e-05
-1.52846e-05
-2.71403e-06
3.37705e-06
1.58582e-05
-1.63162e-05
-2.13448e-06
2.59254e-06
1.66274e-05
-1.67755e-05
-1.8108e-06
1.95883e-06
1.67849e-05
-1.66934e-05
-2.46111e-06
2.36979e-06
1.63618e-05
-1.55248e-05
-3.07327e-06
2.47036e-06
1.43088e-05
-1.29445e-05
2.01642e-06
-3.63377e-06
1.16982e-05
-1.09192e-05
8.37614e-06
-9.16711e-06
1.06851e-05
-1.10535e-05
7.14245e-06
-6.77403e-06
1.17184e-05
-1.12082e-05
1.11111e-06
-1.13672e-06
8.69792e-06
-6.05122e-06
-5.28567e-06
2.62052e-06
3.09666e-06
-1.13793e-06
4.56643e-06
-6.57765e-06
6.15305e-08
-3.13509e-08
1.24721e-05
-1.25023e-05
3.10673e-07
-3.86953e-07
7.32795e-06
-7.25196e-06
3.27627e-07
-2.05699e-07
3.36116e-06
-3.48309e-06
-1.26315e-05
1.41298e-05
-1.49837e-06
3.02579e-06
-4.76326e-06
-8.055e-06
9.79247e-06
7.29586e-06
-1.0313e-05
-1.31342e-05
1.61513e-05
1.28131e-05
-1.39095e-05
-8.54664e-06
9.64298e-06
1.36156e-05
-1.26138e-05
5.1262e-06
-6.12805e-06
1.17317e-05
-1.12524e-05
1.95142e-06
-2.43078e-06
1.13564e-05
-1.18552e-05
-3.14746e-06
3.64625e-06
1.24603e-05
-1.31287e-05
-4.68034e-06
5.34871e-06
1.38088e-05
-1.44679e-05
-4.68732e-06
5.34641e-06
1.5086e-05
-1.56486e-05
-3.9858e-06
4.54842e-06
1.61434e-05
-1.65566e-05
-3.03012e-06
3.44333e-06
1.68674e-05
-1.70281e-05
-2.10628e-06
2.26691e-06
1.69279e-05
-1.63935e-05
-1.85983e-06
1.32538e-06
1.53105e-05
-1.383e-05
-1.06551e-06
-4.14993e-07
1.23731e-05
-1.13518e-05
4.84725e-06
-5.86851e-06
1.07532e-05
-1.01709e-05
9.67216e-06
-1.02545e-05
9.20103e-06
-7.74691e-06
7.43609e-06
-8.89021e-06
5.9759e-06
-3.99339e-06
2.09832e-06
-4.07847e-06
1.62887e-06
9.09349e-07
1.5455e-07
-2.74627e-06
-2.82113e-06
3.2216e-06
8.90988e-06
-9.31035e-06
-2.39628e-06
1.29555e-06
1.16875e-05
-1.05868e-05
-5.15826e-07
1.15769e-07
6.94219e-06
-6.54213e-06
1.05707e-07
-1.1083e-07
3.54339e-06
-3.53827e-06
-1.54792e-05
1.66055e-05
-1.12629e-06
2.95261e-06
-4.77168e-06
-1.16379e-05
1.3457e-05
6.771e-06
-8.55431e-06
-1.86641e-05
2.04474e-05
9.54707e-06
-9.60959e-06
-1.01497e-05
1.02122e-05
9.21578e-06
-8.93973e-06
6.72899e-06
-7.00503e-06
9.80574e-06
-1.09055e-05
2.24099e-06
-1.14126e-06
1.16721e-05
-1.24158e-05
-4.24744e-06
4.99116e-06
1.31111e-05
-1.375e-05
-6.00026e-06
6.63914e-06
1.43586e-05
-1.4931e-05
-5.96082e-06
6.53328e-06
1.54678e-05
-1.5966e-05
-5.0754e-06
5.57363e-06
1.6418e-05
-1.68073e-05
-3.83902e-06
4.22832e-06
1.7106e-05
-1.72682e-05
-2.42512e-06
2.58732e-06
1.72191e-05
-1.68596e-05
-8.86948e-07
5.27498e-07
1.61257e-05
-1.50822e-05
1.65802e-06
-2.70156e-06
1.39227e-05
-1.28184e-05
6.89464e-06
-7.99892e-06
1.17617e-05
-1.06007e-05
1.11237e-05
-1.22847e-05
9.17905e-06
-7.40761e-06
1.05728e-05
-1.23442e-05
5.25648e-06
-2.78582e-06
6.6692e-06
-9.13985e-06
2.54894e-07
1.86461e-06
5.09438e-06
-7.21389e-06
-2.98201e-06
2.99253e-06
9.21415e-06
-9.22467e-06
-2.3696e-06
1.68075e-06
9.61702e-06
-8.92817e-06
-1.14255e-06
7.57316e-07
6.14824e-06
-5.763e-06
-4.1489e-07
2.08773e-07
3.46415e-06
-3.25804e-06
-1.73782e-05
1.76108e-05
-2.32612e-07
2.34894e-06
-3.79498e-06
-1.51262e-05
1.65722e-05
4.68262e-06
-4.92344e-06
-2.14376e-05
2.16785e-05
4.6688e-06
-4.32494e-06
-1.00018e-05
9.65796e-06
3.84443e-06
-4.47872e-06
6.91293e-06
-6.27864e-06
7.2415e-06
-1.00841e-05
-9.10862e-07
3.75344e-06
1.18323e-05
-1.28965e-05
-5.90306e-06
6.96722e-06
1.3683e-05
-1.43037e-05
-7.2699e-06
7.89055e-06
1.48436e-05
-1.5341e-05
-7.06657e-06
7.56392e-06
1.58148e-05
-1.62742e-05
-6.04887e-06
6.50827e-06
1.67171e-05
-1.71273e-05
-4.62237e-06
5.03258e-06
1.74724e-05
-1.77016e-05
-2.77356e-06
3.00275e-06
1.77468e-05
-1.75332e-05
-2.36653e-07
2.30624e-08
1.70095e-05
-1.61842e-05
3.62219e-06
-4.44749e-06
1.5125e-05
-1.38943e-05
9.17265e-06
-1.04034e-05
1.24899e-05
-1.08587e-05
1.36944e-05
-1.53256e-05
8.96332e-06
-6.82696e-06
1.42812e-05
-1.64175e-05
4.53739e-06
-2.23854e-06
1.14613e-05
-1.37602e-05
1.28144e-07
1.54394e-06
9.0521e-06
-1.07242e-05
-2.56239e-06
2.87634e-06
9.44908e-06
-9.76303e-06
-2.68562e-06
2.27083e-06
8.43132e-06
-8.01653e-06
-1.81741e-06
1.40406e-06
5.36755e-06
-4.9542e-06
-1.01001e-06
5.14438e-07
2.90152e-06
-2.40596e-06
-1.70538e-05
1.56459e-05
1.40799e-06
6.92876e-07
-1.88639e-06
-1.78235e-05
1.9017e-05
1.95316e-06
-1.15163e-06
-2.13042e-05
2.05027e-05
2.47065e-07
4.41352e-07
-9.20926e-06
8.52085e-06
-4.42626e-07
-2.41801e-06
4.65664e-06
-1.67839e-06
7.0863e-06
-1.0385e-05
-7.12388e-06
1.04226e-05
1.23014e-05
-1.3409e-05
-8.10588e-06
9.21348e-06
1.41768e-05
-1.47466e-05
-8.49252e-06
9.06233e-06
1.52177e-05
-1.56556e-05
-8.02966e-06
8.46764e-06
1.60927e-05
-1.65467e-05
-6.96057e-06
7.41458e-06
1.70208e-05
-1.75006e-05
-5.47086e-06
5.95068e-06
1.79511e-05
-1.83159e-05
-3.29111e-06
3.6559e-06
1.85232e-05
-1.8497e-05
1.02456e-07
-1.28654e-07
1.81738e-05
-1.75169e-05
5.18661e-06
-5.84348e-06
1.65178e-05
-1.51696e-05
1.16902e-05
-1.30383e-05
1.34541e-05
-1.13652e-05
1.71767e-05
-1.92656e-05
8.95556e-06
-6.35911e-06
1.87714e-05
-2.13678e-05
3.77695e-06
-1.42339e-06
1.60696e-05
-1.84231e-05
-5.15993e-07
1.9894e-06
1.22928e-05
-1.37662e-05
-2.93591e-06
3.37254e-06
1.01243e-05
-1.05609e-05
-3.40624e-06
3.14601e-06
7.66154e-06
-7.40132e-06
-2.69763e-06
2.15383e-06
4.50093e-06
-3.95713e-06
-1.56811e-06
8.66729e-07
1.80505e-06
-1.10367e-06
-1.35972e-05
1.07118e-05
2.88534e-06
-1.85497e-06
7.61778e-07
-2.01427e-05
2.12359e-05
-4.85056e-07
1.30945e-06
-1.95586e-05
1.87342e-05
-2.41944e-06
3.13394e-06
-7.80459e-06
7.09009e-06
4.3723e-07
-6.67678e-06
-3.01129e-06
9.19106e-06
1.03071e-05
-1.20417e-05
-1.29691e-05
1.47037e-05
1.3207e-05
-1.39814e-05
-1.01922e-05
1.09666e-05
1.45644e-05
-1.50228e-05
-9.5856e-06
1.00441e-05
1.54225e-05
-1.58175e-05
-8.8814e-06
9.27642e-06
1.62426e-05
-1.67201e-05
-7.87667e-06
8.35415e-06
1.72609e-05
-1.78573e-05
-6.48227e-06
7.07868e-06
1.8474e-05
-1.90463e-05
-4.11534e-06
4.68762e-06
1.94893e-05
-1.971e-05
3.8659e-08
1.82093e-07
1.96188e-05
-1.91226e-05
6.41798e-06
-6.9142e-06
1.81503e-05
-1.66517e-05
1.44635e-05
-1.59622e-05
1.4611e-05
-1.20383e-05
2.15999e-05
-2.41727e-05
8.98031e-06
-5.60603e-06
2.42573e-05
-2.76315e-05
2.27505e-06
5.6716e-07
2.09349e-05
-2.37771e-05
-2.77405e-06
4.41092e-06
1.52769e-05
-1.69137e-05
-5.59723e-06
6.40129e-06
1.11632e-05
-1.19673e-05
-6.80349e-06
6.77885e-06
7.28756e-06
-7.26294e-06
-6.36165e-06
5.67745e-06
3.30043e-06
-2.61623e-06
-4.72327e-06
3.12374e-06
-2.92569e-08
1.62879e-06
9.38824e-06
-1.57402e-05
6.20522e-06
-6.39017e-06
-2.56781e-06
9.18936e-06
1.82906e-05
-3.0825e-05
1.25344e-05
3.63581e-05
-3.86767e-05
2.31863e-06
3.99742e-05
-3.97736e-05
-2.01471e-07
3.79714e-05
-3.53522e-05
-2.61819e-06
3.17084e-05
-2.52766e-05
-6.4174e-06
1.65186e-05
-1.29764e-05
-3.57055e-06
9.81292e-06
-5.63133e-06
-4.20993e-06
1.22895e-06
-2.3326e-07
-1.00854e-06
1.67928e-06
-2.74056e-06
1.06123e-06
1.32304e-05
-2.64483e-05
1.45601e-05
2.57865e-05
-1.94534e-05
-3.3987e-06
1.05847e-05
2.68062e-06
-1.32981e-05
-9.57484e-06
8.66305e-06
9.47437e-07
-5.91721e-06
1.84682e-06
4.07069e-06
-3.48131e-06
9.72715e-06
-6.36916e-06
-7.55753e-06
-3.9607e-06
1.13765e-05
1.64235e-05
-1.38876e-05
-1.16723e-06
1.4824e-05
-5.53428e-06
-9.4938e-06
9.23022e-06
-2.14043e-05
-2.55282e-05
3.74161e-05
9.57972e-06
-3.51448e-06
-1.12108e-05
8.15983e-07
3.90873e-06
-3.88299e-06
-3.64626e-07
-1.11722e-06
3.58307e-06
-4.96853e-06
5.2209e-07
-1.56313e-07
1.08584e-05
-1.81153e-05
4.01275e-06
-1.03082e-06
1.95523e-05
-1.72067e-05
1.17662e-05
-1.41105e-05
8.20781e-06
-2.82743e-07
9.03479e-06
-1.69599e-05
-5.72664e-06
1.00505e-05
9.79583e-06
-1.41198e-05
-1.02957e-05
5.80679e-06
-6.54402e-07
5.14326e-06
3.63795e-06
-1.98251e-05
-1.34035e-05
2.95921e-05
1.4844e-05
-1.39422e-05
-1.00793e-05
7.7193e-06
1.37712e-05
-1.12271e-05
1.092e-05
-1.29286e-05
-6.22869e-07
9.383e-06
3.56045e-05
-3.39331e-05
-2.33339e-05
1.89902e-05
-5.03796e-06
-2.02776e-07
-1.68174e-05
1.18152e-05
-1.01077e-05
1.05861e-05
-5.17335e-06
-5.44926e-07
9.76195e-06
-4.09899e-06
7.89336e-06
-1.34863e-05
-2.65267e-05
3.3179e-05
1.24073e-05
-1.12531e-05
3.5775e-06
-8.79802e-06
-1.07343e-05
2.33806e-05
-1.26026e-05
1.48572e-05
-1.28598e-06
-2.26302e-05
3.3017e-06
1.17031e-07
2.37853e-07
-8.51463e-08
-4.70492e-07
-4.16012e-06
7.68866e-06
4.31532e-06
-1.18887e-05
-6.73572e-06
5.67939e-07
1.21199e-06
-2.9931e-06
-4.85342e-08
1.51061e-08
-6.29316e-08
6.20552e-08
2.09887e-06
-1.79607e-06
1.51228e-05
-1.22374e-05
1.50737e-06
2.56875e-06
2.37923e-05
-2.78684e-05
-9.03461e-06
1.02411e-05
1.81217e-05
-1.93283e-05
-1.27471e-06
-1.29585e-05
-1.3346e-05
2.75791e-05
2.24983e-05
-1.0619e-05
-2.97541e-05
2.06898e-05
5.15682e-06
-4.93933e-06
-4.85057e-06
2.38003e-06
6.27899e-06
-2.23087e-06
1.32188e-05
-5.47365e-06
-9.65029e-06
1.85951e-05
4.69191e-05
-6.56448e-05
-2.58044e-05
2.77075e-05
5.71392e-06
-7.73638e-06
-1.24412e-05
8.82982e-06
-1.23717e-05
1.45727e-05
-7.64432e-06
-8.21649e-07
-7.66439e-06
1.80327e-05
6.24504e-06
-4.65084e-06
-2.91454e-05
2.16128e-05
4.0254e-06
1.89211e-06
1.52737e-05
-2.83367e-05
-2.23961e-05
1.66663e-05
2.02817e-06
4.75479e-08
8.2601e-08
-9.06305e-07
5.4276e-07
-1.04537e-06
7.31379e-06
4.11508e-06
-7.79875e-06
-6.4997e-06
1.77219e-06
1.07859e-05
-2.47391e-06
8.21108e-09
-1.63078e-08
8.33537e-08
-8.59588e-08
-2.70524e-08
3.46262e-08
-6.51995e-08
5.81488e-08
-4.78543e-08
1.04845e-05
9.41528e-06
-5.86228e-06
-7.47407e-06
3.66055e-06
2.81979e-05
-2.43829e-05
1.38112e-06
-1.87137e-05
1.17539e-05
5.57864e-06
3.63182e-05
-2.35159e-05
-4.05677e-05
2.90944e-05
1.14394e-05
-4.26062e-06
-1.19512e-05
2.88042e-06
8.01742e-07
-3.39111e-06
-5.705e-06
1.01792e-05
4.74261e-07
3.72025e-06
8.64226e-06
-1.38676e-05
-1.95455e-05
2.12974e-05
7.16406e-05
-7.02278e-05
-1.97448e-05
1.18013e-05
7.91947e-06
-9.77516e-06
-1.2258e-05
6.88763e-06
-1.68631e-05
2.1399e-05
-5.36742e-06
4.09096e-06
-1.82878e-05
1.7838e-05
-3.9409e-06
3.88758e-06
-2.08718e-05
2.08475e-05
-7.63583e-06
8.90242e-06
3.29826e-05
-3.40919e-05
-1.7087e-05
1.46677e-05
3.52508e-06
-3.83953e-07
3.54213e-06
-3.28216e-07
8.54154e-06
-8.17957e-06
4.53459e-06
7.63857e-06
-4.93686e-06
-4.08158e-07
9.60347e-07
-7.49098e-09
-2.95006e-06
-1.65206e-06
8.05237e-07
7.27907e-08
-1.58174e-06
-3.97529e-07
1.18582e-06
-3.67719e-08
3.73748e-06
-1.60112e-05
2.62763e-05
7.23203e-06
-2.01326e-06
-1.03439e-05
-4.2533e-06
1.54674e-05
-8.29787e-07
2.79227e-05
-4.36235e-05
-2.94784e-05
4.74722e-05
2.15171e-05
-1.5537e-05
-1.76478e-05
9.24016e-06
9.51043e-06
-1.32131e-06
6.35575e-06
-1.6596e-05
-5.82225e-07
5.44391e-07
-5.36409e-06
1.05749e-06
-9.72036e-07
1.15828e-05
8.89648e-06
-2.39074e-06
-2.08263e-05
8.39123e-06
6.4469e-05
-3.70112e-05
-2.77232e-06
8.09303e-06
4.25837e-06
-7.81074e-07
-2.22462e-05
2.28819e-05
-4.97684e-05
5.43453e-05
-2.44821e-05
2.54475e-05
-3.55353e-05
5.11575e-05
-2.25789e-05
2.1079e-05
-3.42513e-05
4.62589e-05
-1.44638e-05
2.4985e-06
2.45851e-05
-1.27603e-05
-1.04548e-05
5.21687e-06
3.17978e-06
-6.73116e-06
7.06794e-06
-9.44832e-06
4.23598e-06
-7.15151e-06
1.36374e-05
7.76445e-06
-1.4463e-05
-2.97763e-05
3.49045e-05
2.09036e-05
-2.59144e-05
-3.64338e-05
3.78156e-05
7.58744e-06
-8.85654e-06
-3.9784e-05
4.28821e-05
-8.94639e-06
5.98285e-06
-4.36698e-05
3.28004e-05
-9.65886e-06
1.84384e-05
-1.15288e-05
-1.13161e-05
-1.84603e-05
4.13786e-05
3.52192e-05
-1.57131e-05
-4.40584e-05
3.28723e-05
1.7057e-05
-2.01215e-05
-2.63629e-06
-3.24498e-06
1.17163e-05
-6.3534e-06
2.63294e-05
-3.0988e-05
-1.2986e-07
6.35204e-07
-7.63282e-07
9.63943e-08
-1.74832e-06
1.79628e-05
4.56681e-05
-9.14838e-05
-1.5384e-05
2.34682e-07
2.19982e-05
-1.44404e-05
-7.31425e-09
-1.98084e-08
2.53566e-07
-5.33905e-08
-1.44836e-06
1.49924e-05
-4.33346e-05
1.46573e-05
-2.50823e-05
3.00423e-05
-4.86556e-05
4.3842e-05
-3.21084e-05
3.0735e-05
-4.91109e-05
5.05273e-05
-2.23402e-05
3.91296e-06
2.27252e-06
7.31094e-06
-1.44571e-06
1.68118e-06
-4.78284e-07
-3.46564e-06
8.6897e-06
-5.06148e-07
-9.3023e-06
-2.89986e-05
3.7762e-05
3.24625e-05
-4.04309e-05
-3.7531e-05
3.64747e-05
2.69874e-05
-2.58126e-05
-3.55615e-05
3.35056e-05
9.232e-06
-6.7063e-06
-2.97076e-05
2.04147e-05
-3.06276e-06
2.08011e-07
-1.09029e-05
1.07079e-05
-1.9898e-05
1.93937e-06
-1.98483e-06
-1.74935e-05
-6.44484e-05
8.40525e-05
2.28622e-05
-8.90222e-06
-2.2296e-05
1.66573e-05
8.58851e-06
-8.82099e-06
4.75013e-06
-6.42872e-06
1.14205e-05
-1.14843e-05
3.26786e-05
-3.18311e-05
6.02178e-06
-1.72399e-06
1.97308e-06
-1.11875e-05
-5.91396e-06
5.80561e-06
0.000102601
-0.000103216
1.01216e-05
-2.56309e-06
1.50072e-05
-1.7622e-05
2.13986e-06
-1.68814e-06
2.75272e-07
-7.51389e-07
9.87343e-08
1.32973e-06
-1.40718e-06
5.85384e-07
-1.23544e-05
2.24203e-05
-3.66029e-05
2.08985e-05
-2.8037e-05
2.90325e-05
-5.07765e-05
4.98006e-05
-2.39018e-05
6.25001e-06
-1.75628e-05
1.958e-05
-9.91237e-06
-8.1486e-07
1.38013e-05
-1.59139e-05
2.32939e-05
2.56419e-05
-2.97962e-05
-1.38477e-05
3.12315e-06
3.02192e-05
-9.18314e-06
-8.63525e-07
4.46209e-07
6.73089e-06
-2.95324e-06
-1.16625e-07
8.29916e-08
2.44115e-07
-2.18188e-07
-8.65023e-08
2.08624e-08
-9.76278e-10
6.36568e-08
3.11088e-07
-6.67385e-06
-3.21423e-06
1.0391e-05
1.41543e-05
-2.42966e-05
-9.78582e-05
0.000108422
1.17705e-05
-8.49394e-06
-1.82072e-05
1.55925e-05
9.8936e-06
-1.2939e-05
1.6792e-05
-2.95446e-05
7.25804e-06
-5.73324e-06
2.9109e-05
-1.0387e-05
6.02966e-06
-1.61249e-06
2.85683e-05
-2.22679e-05
-5.83473e-06
-4.77809e-06
9.40701e-05
-8.28581e-05
2.43382e-05
-2.31818e-05
2.16725e-05
-1.81757e-05
3.00764e-06
-3.95148e-06
7.56566e-07
1.58342e-07
4.51451e-06
-4.24281e-06
4.89303e-07
-8.36444e-07
2.51859e-06
-1.35555e-06
-9.45885e-07
-8.28398e-07
-1.87254e-06
7.87902e-06
-4.48508e-05
1.6957e-05
2.58144e-08
-4.62541e-06
-2.51297e-05
2.4924e-05
-4.96729e-06
4.86449e-07
-8.56985e-07
-4.58187e-06
5.05034e-06
-2.17906e-05
2.13221e-05
-4.17e-06
2.19985e-06
-1.8039e-05
2.00091e-05
2.4795e-06
-1.18331e-05
-9.28854e-06
1.86445e-05
2.16902e-05
-2.63244e-05
-1.45932e-05
1.96031e-05
2.76498e-05
-2.85014e-05
-1.57725e-05
1.66241e-05
2.96049e-05
-3.07222e-05
-1.15469e-05
1.26641e-05
3.16289e-05
-3.24381e-05
-1.03991e-05
1.12082e-05
3.32467e-05
-3.41244e-05
-9.63784e-06
1.05156e-05
3.51278e-05
-3.63103e-05
-8.84004e-06
1.00225e-05
3.77279e-05
-3.9403e-05
-7.73029e-06
9.40538e-06
4.12682e-05
-4.31503e-05
-5.3759e-06
7.25807e-06
4.4822e-05
-4.60482e-05
-5.48044e-07
1.77431e-06
4.6637e-05
-4.62763e-05
7.32185e-06
-7.68261e-06
4.4703e-05
-4.15249e-05
1.74724e-05
-2.06505e-05
3.62506e-05
-2.86204e-05
2.7074e-05
-3.47036e-05
1.91469e-05
-9.18348e-06
3.17229e-05
-4.16823e-05
5.03301e-07
5.74109e-06
2.69573e-05
-3.31809e-05
-9.73314e-06
1.22796e-05
1.86361e-05
-2.09757e-05
-1.34317e-05
1.28721e-05
1.28383e-05
-1.02299e-05
-1.08929e-05
8.79735e-06
7.07838e-06
-1.83263e-06
-7.35533e-06
8.68038e-06
1.99912e-06
-1.63159e-06
-1.25903e-05
1.84696e-05
-3.4433e-06
-1.9743e-06
2.4331e-08
-9.49064e-10
-2.51079e-08
9.64304e-07
-3.5025e-06
-7.9103e-06
-2.84564e-07
7.814e-06
-1.23601e-05
-1.57123e-05
-3.56833e-08
1.57901e-05
-1.9209e-05
-2.23005e-05
6.56076e-07
2.64258e-05
-3.43385e-05
-1.82436e-05
5.65497e-06
3.67436e-05
-3.46443e-05
-1.57774e-05
9.98306e-06
3.27842e-05
-3.13445e-05
-1.32459e-05
1.18062e-05
3.02506e-05
-2.96411e-05
-1.18817e-05
1.12722e-05
2.95582e-05
-2.99747e-05
-1.14828e-05
1.18994e-05
3.09022e-05
-3.24571e-05
-1.16071e-05
1.3162e-05
3.48261e-05
-3.81204e-05
-1.19676e-05
1.52619e-05
4.22316e-05
-4.68293e-05
-1.0246e-05
1.48437e-05
5.15162e-05
-5.58567e-05
-4.17957e-06
8.52006e-06
5.92774e-05
-6.10944e-05
7.10139e-06
-5.28435e-06
6.04484e-05
-5.73223e-05
2.42758e-05
-2.73999e-05
5.30722e-05
-4.89696e-05
4.30449e-05
-4.63329e-05
4.52139e-05
-3.98176e-05
4.98513e-05
-4.16238e-05
2.40309e-05
-7.47243e-06
2.29353e-05
-4.5759e-06
3.79568e-06
-5.10517e-06
1.10337e-06
1.47055e-07
6.6359e-06
-8.04685e-06
2.23004e-07
1.0696e-06
9.53585e-06
-4.8402e-05
-1.61277e-07
-4.74542e-06
9.33617e-05
-8.25812e-05
9.40266e-06
-2.00369e-05
7.30337e-05
-6.25604e-05
1.3031e-05
-1.86106e-05
8.60354e-11
-8.25638e-12
-1.21873e-10
5.70012e-09
-1.255e-08
5.50392e-09
-1.90376e-10
1.60056e-08
-1.79116e-08
9.94026e-10
-1.5744e-10
2.11767e-08
-3.95231e-08
1.88912e-08
-1.74628e-09
1.32458e-07
-2.65518e-07
1.29514e-07
3.06276e-09
4.43271e-07
-9.89105e-07
1.56922e-07
-4.19491e-09
3.04098e-06
-5.56987e-06
-2.34378e-06
-5.28551e-08
8.68564e-06
-1.27041e-05
-5.45662e-06
-1.42588e-07
1.79182e-05
-2.30195e-05
-1.04943e-05
3.94885e-07
2.6725e-05
-2.95474e-05
-1.3121e-05
2.953e-06
3.30961e-05
-3.81716e-05
-1.83866e-05
1.21158e-05
4.18026e-05
-4.68897e-05
-2.10649e-05
2.6152e-05
5.35105e-05
-6.10086e-05
-1.50343e-05
2.25325e-05
6.84759e-05
-7.58622e-05
2.05279e-06
5.34084e-06
8.61463e-05
-9.07234e-05
2.48646e-05
-9.48608e-06
6.24477e-05
-5.55909e-05
2.54166e-05
-2.51189e-05
4.43134e-05
-6.61836e-05
4.54553e-05
-4.02462e-05
6.31483e-05
-3.14065e-05
7.8315e-06
-1.2129e-05
1.03679e-05
-1.46612e-05
-1.56126e-06
5.46116e-06
6.53179e-05
-8.11556e-05
-3.21738e-06
8.79011e-06
8.33436e-05
-8.2085e-05
6.88397e-06
-4.77501e-08
8.59153e-05
-0.000116818
2.2657e-05
-1.31339e-05
0.000118149
-0.000115151
2.21088e-05
-2.44297e-05
7.88504e-14
4.84344e-13
-2.47191e-12
6.16724e-11
-8.82831e-11
4.25016e-12
2.2329e-12
1.06731e-10
-1.52862e-10
1.27662e-11
1.3146e-11
2.42223e-10
-3.37226e-10
8.07155e-11
3.89442e-11
2.83408e-10
-1.20236e-10
-2.02147e-10
1.82785e-11
1.11424e-10
-1.36024e-10
2.61328e-12
-1.69759e-11
1.64058e-10
-2.45167e-10
2.3921e-10
-1.71768e-10
6.96999e-10
-2.55957e-09
1.90925e-09
-1.44849e-10
1.05116e-08
-4.188e-08
3.20695e-08
-2.20934e-09
1.22181e-07
-1.75489e-07
4.4463e-08
-2.34172e-08
4.1354e-07
-9.96925e-07
-3.84913e-07
1.24301e-07
4.56129e-05
-9.66959e-05
-1.85224e-05
1.60284e-05
9.73108e-05
-0.000101274
-2.6676e-05
3.02323e-05
0.000113435
-0.000131116
-1.96558e-05
3.78059e-05
0.000142098
-8.1496e-05
-6.88154e-06
9.39702e-06
5.36678e-05
-0.000101778
2.58382e-05
-1.62796e-05
0.000100942
-9.46235e-05
4.73279e-05
-5.2436e-05
7.89364e-05
-7.48801e-05
1.13365e-05
-9.41958e-07
7.45212e-05
-3.99029e-05
-1.23687e-05
2.59857e-06
8.21029e-06
-3.31414e-07
-1.19275e-06
-7.37137e-09
3.01397e-08
-4.1149e-08
6.22884e-09
2.22048e-09
7.68885e-08
-1.63013e-06
1.21936e-06
1.10386e-08
5.07138e-05
-0.000103545
1.99609e-05
-1.24686e-05
-2.97154e-13
1.48196e-13
-5.41124e-14
7.95179e-13
-7.1799e-13
-1.54166e-12
5.90502e-13
1.42202e-11
-4.07996e-11
-2.4285e-11
6.09714e-11
1.89596e-11
-1.74641e-11
-4.38217e-11
4.23968e-11
1.56561e-11
-1.7352e-11
-8.54231e-12
8.83527e-12
1.32283e-11
-2.0797e-10
1.60019e-11
8.66536e-13
6.45131e-10
-6.55649e-10
1.73755e-10
-2.03692e-11
5.70904e-10
-2.29253e-10
7.79481e-11
-1.79712e-10
9.20042e-11
-2.4128e-10
3.3795e-10
-1.82827e-10
1.7827e-09
-1.10494e-08
2.09267e-09
-5.64027e-10
6.29423e-08
-2.77931e-07
-8.84304e-08
2.97882e-08
1.22017e-05
-0.000106967
-1.10005e-05
9.24191e-06
0.000138067
-0.000148282
-3.55713e-05
4.56658e-05
0.000156263
-6.39111e-05
-4.80642e-05
2.62765e-05
1.08877e-05
-1.02635e-05
-4.75185e-06
6.89291e-07
1.03348e-05
-1.02345e-05
5.22667e-06
-8.93609e-06
2.41623e-05
-3.40072e-05
4.39958e-05
-1.17941e-05
3.6922e-06
-6.66962e-08
2.71057e-07
-6.60029e-07
5.46488e-08
-2.78082e-08
-1.57273e-08
-8.522e-09
2.61345e-08
-2.70643e-08
7.81701e-09
-5.3148e-09
2.6517e-08
-2.25021e-08
-1.28051e-09
-2.1489e-09
1.7428e-08
-4.70367e-08
2.62372e-09
2.37673e-10
8.94079e-08
-8.68125e-07
7.61829e-07
-3.74219e-10
-7.76061e-14
4.58609e-14
-2.28577e-15
1.62326e-14
1.66185e-14
-2.147e-13
8.15598e-14
-1.35928e-12
1.67796e-11
-7.1052e-11
1.05576e-11
3.0414e-10
-2.59985e-10
-6.94238e-10
1.29527e-09
4.86037e-10
-7.62351e-10
-7.88113e-12
8.56691e-10
9.58093e-10
-2.2535e-10
-7.3472e-13
1.87046e-10
1.33463e-11
-2.72616e-11
3.66792e-12
-7.34978e-12
4.9025e-11
-9.75e-11
1.26539e-11
5.31662e-12
2.7792e-10
-1.19495e-09
3.1946e-11
2.21639e-10
6.70047e-09
-5.60028e-08
2.19131e-11
1.31214e-09
5.8201e-07
-8.42283e-06
-2.16518e-07
4.53099e-06
9.22433e-05
-0.000143092
-1.96722e-05
3.50278e-05
0.000164502
-8.77855e-05
-5.5431e-05
3.52187e-05
1.68968e-05
-1.14835e-05
-1.01466e-05
1.20551e-06
1.24471e-05
-5.24442e-05
2.17846e-06
-1.5411e-05
5.19263e-05
-4.95958e-05
2.42314e-05
-2.56762e-05
4.34878e-05
-4.34317e-06
5.89281e-06
-1.48663e-05
4.48704e-07
-2.55369e-07
1.49577e-07
-3.21262e-07
2.6985e-07
-8.41484e-08
3.84634e-08
-2.16282e-07
3.74198e-08
-3.5778e-08
4.41364e-09
-6.41173e-09
3.43234e-08
-3.12448e-08
5.63677e-09
-8.49642e-09
2.69181e-08
-2.42863e-08
-4.79019e-09
2.11667e-09
2.52256e-08
-2.99181e-08
-1.0818e-08
1.65528e-08
-2.54147e-14
2.50717e-14
-7.21171e-16
2.02018e-15
-8.18519e-16
-3.75077e-14
2.58819e-14
-8.09207e-14
3.75631e-13
-2.36858e-12
5.99418e-13
-4.95366e-13
-7.68991e-12
-3.4814e-10
1.1027e-11
1.48829e-10
-5.09502e-10
-1.13292e-09
6.63741e-10
7.00488e-10
-7.35418e-10
-5.46861e-10
9.57849e-10
4.14364e-10
-6.09922e-10
1.71671e-11
1.92419e-11
4.78767e-09
-2.54205e-08
-4.61947e-10
3.05771e-08
7.70227e-08
-1.98829e-06
-4.34788e-09
1.87979e-06
1.24996e-05
-7.65718e-05
-1.81814e-06
1.4566e-05
0.000104992
-0.000107357
-2.13473e-05
2.96214e-05
7.61551e-05
-2.16962e-05
-3.29717e-05
1.55038e-06
3.84931e-06
-1.56837e-06
-2.51441e-06
3.35807e-07
1.04446e-06
-1.01889e-07
-1.07779e-06
7.29039e-08
1.58779e-05
-4.78533e-05
1.78724e-05
-1.06758e-05
5.23847e-05
-5.27187e-05
2.55742e-05
-2.44524e-05
5.30168e-05
-5.21306e-05
2.05325e-05
-2.03216e-05
2.34657e-05
-8.90492e-06
7.06868e-07
-5.07702e-06
2.98146e-05
-2.80129e-05
5.92933e-06
-1.04432e-05
2.58126e-06
-1.44947e-07
5.28498e-08
-2.48169e-06
5.31254e-08
-4.73839e-08
9.10535e-09
-1.44592e-08
4.50532e-08
-4.26972e-08
8.64679e-10
-3.23839e-09
3.85537e-08
-3.27411e-08
-1.62533e-08
1.08474e-08
-2.41625e-14
2.36096e-14
-1.07523e-16
1.53479e-15
-1.97256e-15
-2.02625e-14
2.0909e-14
-1.41705e-15
-4.13826e-13
-3.03145e-13
6.66268e-13
1.67773e-13
-1.45644e-12
-7.61828e-12
4.48051e-12
5.67058e-12
-3.33222e-11
-1.12259e-10
1.13672e-10
5.17594e-10
-1.53377e-08
-2.28486e-09
1.53635e-08
9.98149e-08
-4.12626e-07
-1.15035e-08
2.9678e-07
4.86488e-06
-6.55803e-05
-1.47108e-06
1.2959e-05
8.35633e-05
-9.09743e-05
-1.49182e-05
1.77319e-05
8.66973e-05
-3.27643e-05
-2.11715e-05
5.22277e-06
3.2554e-06
-1.05142e-06
-2.12795e-06
3.56934e-10
4.65095e-07
-2.06287e-07
-3.66854e-07
1.53942e-07
9.5088e-08
-5.81729e-08
-5.50793e-08
2.3628e-08
4.53679e-08
-4.52478e-08
-2.46916e-09
2.94225e-10
2.20269e-07
-1.34441e-06
1.2365e-06
-2.38338e-07
1.96969e-05
-4.65309e-05
1.9893e-05
-1.24032e-05
4.88864e-05
-4.79956e-05
1.84872e-05
-1.79599e-05
2.1467e-05
-8.64422e-06
2.60559e-06
-8.60023e-07
3.71211e-05
-4.27847e-05
1.13438e-05
-7.23627e-06
3.95948e-05
-3.33153e-05
6.30009e-06
-1.02564e-05
4.82986e-06
-5.41795e-07
1.10534e-07
-4.38604e-06
1.37463e-07
-2.00927e-07
4.01794e-09
4.3504e-09
6.6451e-07
-6.2432e-07
-3.40232e-09
-6.57372e-07
-1.7782e-11
2.54793e-11
1.07461e-12
1.96372e-15
-2.95177e-15
-3.60306e-14
5.05967e-14
4.91735e-14
-1.7502e-12
-2.11591e-12
3.82927e-12
-1.10401e-13
-2.30335e-12
-3.6173e-12
3.36979e-12
1.98095e-12
6.32927e-11
-2.6288e-10
1.64636e-10
-1.16934e-09
1.1255e-08
-4.01914e-08
2.29867e-08
-3.99965e-08
-2.35434e-07
-7.3461e-07
5.5463e-07
1.71248e-05
-2.63437e-05
-8.54597e-06
-4.90831e-07
1.20279e-05
-1.34104e-06
-7.41726e-06
1.15364e-07
6.57613e-08
-5.72091e-08
-7.79747e-09
-1.73629e-09
5.57221e-08
-2.77851e-06
-1.50778e-07
4.48855e-08
2.21638e-06
-1.70059e-06
-2.13395e-07
3.00118e-07
1.53142e-08
-9.09906e-09
-2.7978e-08
2.17605e-08
1.56174e-08
-2.18079e-08
-3.00027e-09
9.14019e-09
3.11313e-08
-6.67904e-08
4.91104e-08
-1.44882e-08
2.63613e-07
-1.6273e-06
1.47098e-06
-9.70662e-08
2.27054e-05
-3.21167e-05
1.3531e-05
-2.94334e-06
3.01284e-06
-3.37237e-06
3.62489e-07
-5.99442e-07
3.99644e-06
-5.72509e-06
2.60478e-06
-1.67161e-06
1.84984e-05
-3.27399e-05
9.45591e-06
-6.65579e-06
3.5469e-05
-3.57607e-05
7.34319e-06
-4.07006e-06
3.51076e-05
-3.39176e-05
2.56791e-06
-1.29694e-06
2.2495e-05
-2.94919e-05
7.23193e-07
-5.31545e-06
-2.77518e-11
1.65077e-11
1.52757e-12
-4.54755e-13
8.02421e-13
-2.31325e-13
7.17003e-13
2.38531e-10
-1.86663e-12
-7.72063e-09
9.97036e-09
6.57781e-13
-5.37992e-14
-3.4598e-12
3.80881e-12
-8.33861e-13
1.95266e-11
-3.59875e-11
7.47624e-12
-1.97764e-10
1.09181e-09
-5.92952e-09
8.11453e-10
1.09416e-08
-4.308e-08
-3.93646e-07
2.25696e-08
6.97381e-08
-1.86315e-08
-2.07054e-08
-1.06963e-08
4.32769e-10
-4.43511e-10
1.08364e-12
6.88783e-12
4.50214e-10
-4.93176e-10
4.35251e-10
-4.50315e-10
8.14179e-10
-2.79771e-09
1.91105e-09
-3.08226e-10
7.04853e-09
-1.65152e-06
-5.32654e-08
1.88803e-07
3.15125e-06
-1.76e-08
-1.60777e-06
2.02308e-06
1.61438e-08
-1.80095e-08
-1.42558e-08
1.60987e-08
2.12614e-08
-6.49116e-08
8.82853e-09
-7.65159e-09
7.48504e-08
-7.45422e-08
3.3949e-08
-1.44947e-08
4.58201e-08
-1.11769e-07
1.14894e-07
-2.0324e-08
4.36059e-07
-1.54743e-06
2.76246e-07
-6.82267e-07
9.28886e-06
-8.66596e-06
4.00393e-06
-4.34743e-06
7.93766e-06
-9.83445e-06
8.17633e-06
-5.97321e-06
3.22484e-06
-3.82064e-07
1.78625e-06
-4.09584e-06
2.37925e-10
-8.82666e-10
5.31306e-10
1.28171e-10
7.34745e-09
-5.29843e-08
4.56272e-08
-3.44075e-11
-6.00125e-12
6.07223e-12
2.42173e-13
-7.62618e-13
8.55264e-13
-1.11738e-12
2.57823e-12
-6.00686e-10
9.72318e-11
-1.09936e-08
7.97969e-09
3.71469e-13
-4.53567e-14
-3.7314e-12
3.45035e-12
-1.3989e-16
1.74426e-13
-1.16711e-12
4.84805e-13
-9.55453e-13
2.52511e-11
-7.83262e-11
1.43826e-11
-4.02984e-10
1.51329e-09
-4.7649e-09
8.02361e-10
-1.72872e-09
1.07849e-10
6.34525e-10
6.03751e-10
-6.49835e-11
6.06488e-11
-4.90156e-11
1.67976e-10
-5.5596e-11
-1.01253e-09
2.92417e-10
-2.68297e-10
-4.01732e-09
-7.1494e-07
-1.35841e-09
2.56318e-07
3.18841e-06
-4.72506e-06
-1.20929e-06
2.87007e-06
5.20036e-06
-3.12674e-08
-2.22438e-06
2.03727e-06
2.79842e-08
-2.33613e-08
-1.42133e-08
9.50097e-09
2.14918e-08
-2.17813e-08
2.71735e-09
-2.55922e-09
2.17067e-08
-2.12111e-08
3.42424e-09
-4.23995e-09
2.20231e-08
-2.44806e-08
4.60596e-09
-2.18202e-09
3.45617e-08
-1.13495e-07
1.10507e-07
-2.99722e-08
1.14818e-06
-3.07802e-06
3.56623e-06
-2.58799e-07
5.91281e-06
-7.29579e-06
6.02657e-06
-4.28202e-06
6.8876e-06
-5.9322e-06
4.1696e-06
-4.69064e-06
6.51985e-10
-2.83779e-10
-1.19577e-10
1.24417e-10
1.81311e-10
-2.43921e-10
2.47234e-12
4.834e-11
-6.05801e-12
8.54096e-12
-2.41595e-12
-4.38437e-10
1.20238e-09
-1.18335e-08
1.51732e-08
-1.24041e-09
-1.45259e-11
-2.35699e-09
1.57044e-09
6.88969e-13
5.03746e-15
-1.2029e-12
4.89892e-13
-8.3596e-17
3.76501e-16
-4.21972e-14
3.08411e-14
-6.92193e-16
8.37205e-14
-3.74635e-12
2.47958e-12
-9.22996e-13
9.94374e-15
-1.34811e-10
2.89386e-11
1.05525e-11
-3.42997e-10
-4.39809e-10
4.62439e-10
4.87423e-09
-3.49049e-08
-1.30419e-09
3.09244e-08
1.03022e-06
-6.62973e-06
9.26847e-08
7.92019e-07
7.58289e-06
-7.78795e-06
-1.58255e-06
1.84313e-06
7.75014e-06
-7.24674e-06
-3.23086e-06
2.81211e-06
1.10197e-06
-4.46032e-08
-1.15922e-06
1.12637e-07
3.92365e-08
-7.51097e-08
-4.12671e-09
-2.46698e-09
2.60474e-07
-2.52061e-07
3.40578e-09
-3.76027e-07
3.42618e-08