/*--------------------------------*- C++ -*----------------------------------*\
| =========                 |                                                 |
| \\      /  F ield         | OpenFOAM: The Open Source CFD Toolbox           |
|  \\    /   O peration     | Version:  v1912                                 |
|   \\  /    A nd           | Website:  www.openfoam.com                      |
|    \\/     M anipulation  |                                                 |
\*---------------------------------------------------------------------------*/
FoamFile
{
    version     2.0;
    format      ascii;
    class       volScalarField;
    location    "0.8";
    object      p;
}
// * * * * * * * * * * * * * * * * * * * * * * * * * * * * * * * * * * * * * //

dimensions      [1 -1 -2 0 0 0 0];


internalField   nonuniform List<scalar> 
9072
(
676.906
708.353
713.748
721.334
737.763
761.876
791.69
824.957
860.045
896.414
933.036
967.506
995.624
1004.91
1010.98
1011.97
990.335
925.257
874.251
850.468
853.173
850.556
835.648
614.222
647.442
653.641
659.457
677.138
702.186
732.269
765.372
800.466
837.138
874.281
909.385
938.971
952.586
951.399
949.365
927.445
870.627
814.035
776.651
788.83
785.903
773.925
547.681
583.476
590.145
592.055
613.462
641.601
671.63
704.596
740.033
777.439
815.776
852.595
884.008
901.046
899.799
893.538
869.907
825.225
764.419
718.638
722.35
718.242
709.322
477.972
516.51
521.189
513.735
545.068
581.226
610.512
642.898
678.561
717.049
757.367
797
831.691
854.028
856.499
843.028
812.658
766.726
709.497
663.55
655.143
649.945
643.096
405.271
446.245
447.401
434.093
478.316
521.678
548.815
580.137
615.984
655.868
698.885
742.452
781.727
808.908
814.153
795.548
756.55
702.996
643.589
600.094
586.278
581.155
575.63
330.106
373.038
373.801
364.042
416.339
461.373
485.812
516.037
552.121
593.651
640.032
688.712
734.017
766.709
774.494
751.044
700.428
634.435
570.404
528.916
515.213
511.831
506.994
252.133
297.442
303.434
305.007
356.545
396.789
420.428
450.262
486.727
530.045
580.36
635.398
688.479
728.083
738.799
709.597
643.342
559.635
490.191
450.929
441.497
442.393
437.427
167.371
220.015
235.783
252.116
294.396
327.256
352.343
382.636
419.552
464.588
519.243
581.96
644.872
693.387
707.973
671.269
583.703
475.219
400.859
365.802
365.551
373.458
364.758
419.368
457.559
393.774
362.041
343.754
350.775
532.283
779.014
821.567
875.866
925.484
857.353
831.408
1141.34
895.298
716.93
737.226
745.254
776.889
374.479
368.716
285.921
312.522
289.494
285.447
425.796
730.827
751.616
804.846
873.454
746.961
733.846
1015.47
791.101
638.818
678.803
648.089
630.043
386.317
287.854
280.318
292.177
277.011
275.364
298.709
688.44
652.39
709.906
798.607
702.525
610.074
821.909
571.497
571.415
643.984
551.398
492.816
324.078
287.164
275.354
268.234
272.29
275.134
270.419
711.762
577.788
678.878
790.768
658.494
574.4
555.213
354.426
502.738
563.802
521.501
523.58
300.479
282.743
249.182
266.492
270.945
275.279
274.78
815.688
605.522
660.367
753.109
618.213
594.799
286.335
228.498
403.609
500.488
499.616
653.09
247.703
265.549
229.794
213.481
193.889
182.095
238.022
844.758
503.983
547.125
627.904
618.411
619.602
203.377
204.739
259.601
409.523
478.852
745.757
229.045
254.671
165.407
74.1031
26.5392
2.05182
7.69043
642.903
405.502
432.303
508.311
601.521
568.782
194.526
209.895
244.782
294.732
421.665
820.806
210.112
218.897
93.513
12.6708
-8.96929
-8.8901
-5.16886
361.454
281.982
299.582
419.436
517.53
536.852
247.193
219.579
240.786
251.38
309.895
849.16
28.3298
119.127
151.923
181.38
205.793
234.425
262.275
293.553
330.738
377.384
437.756
512.225
591.027
654.617
676.622
629.213
498.13
334.415
258
229.873
245.02
284.597
263.742
13.2175
15.4468
22.5796
26.7627
45.7632
76.1013
109.896
140.803
174.828
218.912
285.769
385.408
501.561
601.111
640.298
563.075
326.523
135.354
128.912
143.716
172.626
212.775
140.05
12.6407
12.5916
12.2807
12.2475
11.8066
11.3779
13.6072
18.8777
28.4436
42.2325
86.2814
222.342
396.031
551.985
617.706
544.211
273.154
116.165
116.145
99.5516
54.6394
62.2485
63.8443
11.874
12.1217
11.9157
11.5625
11.0739
10.9105
11.1206
11.3378
11.4999
11.5905
11.8793
64.9735
239.194
418.092
380.569
317.01
169.224
34.9097
40.9651
29.3719
29.1012
28.861
32.2964
10.9483
11.3039
11.0959
10.6099
10.2642
10.4878
10.8556
11.1342
11.3391
11.4306
11.5328
7.24637
90.9092
180.725
204.199
178.872
87.0974
30.5284
29.7382
28.9159
28.4865
28.2116
27.6695
10.0739
10.4151
10.2689
10.0251
10.0099
10.399
10.7492
11.0026
11.2051
11.2149
11.012
-15.4702
30.8748
71.2719
119.808
115.602
43.0114
30.682
29.4447
28.5284
27.9957
27.4468
27.3261
9.24345
9.62452
9.59997
9.65654
9.95645
10.4757
10.7604
10.7892
11.259
1.97954
-5.65433
-0.739917
-0.600279
0.48446
10.1439
43.0621
38.9629
33.0681
26.2944
28.0068
27.5338
26.8512
26.9311
8.40935
8.79809
8.84466
9.03003
9.50251
10.3899
11.1183
5.35211
-0.897981
4.38355
4.80786
3.65554
0.253027
-0.591241
-0.0413308
3.78752
26.2845
26.818
21.0493
27.1142
27.4508
26.9977
27.1492
7.55808
7.89805
7.94524
8.06978
8.29619
8.50057
7.05239
4.52856
1.04587
2.13545
2.87319
3.78338
0.33416
-0.197277
0.122158
0.229363
1.09402
9.57208
11.932
42.6899
35.7978
16.0741
14.9081
6.60986
6.98415
6.99443
6.95203
6.73607
5.92967
2.40875
0.775129
0.649934
1.75835
2.29159
2.01293
-0.25004
0.242698
0.282243
0.411179
0.32284
2.09836
4.31848
12.7697
5.65792
-0.0142014
-0.463791
5.7471
6.1494
6.07935
5.94517
5.59233
4.85801
3.55472
2.68675
2.63912
2.08427
1.46358
-2.49803
-0.50193
0.309981
0.262463
0.234066
0.0235346
-0.334138
1.31594
3.10321
1.68148
-0.859509
-0.962613
5.07628
5.42804
5.30222
5.13231
4.8228
4.37649
3.9376
4.00471
4.72457
2.10309
-3.81577
-1.8499
0.300002
0.275357
0.102799
0.212095
0.0785888
-0.101339
-0.100663
0.204932
-0.789623
-1.92794
-1.79138
4.45543
4.73963
4.62218
4.44691
4.18791
3.87014
3.59568
3.5469
2.8153
-0.0247621
0.530689
0.257858
0.508819
0.587196
1.55448
-2.10473
-0.212157
-0.275845
-0.193252
-0.124946
-0.604212
-1.47
-1.94422
3.86141
4.11567
4.00429
3.83746
3.60762
3.31296
2.93765
2.33702
0.658443
-0.527222
-0.806564
-0.415328
0.0469729
-0.10619
-8.02455
-8.25413
-0.46721
-0.421097
-0.261046
-0.609228
-2.15491
-1.66697
-1.73955
3.30938
3.53292
3.43576
3.28879
3.08761
2.81969
2.45205
1.89803
0.958236
-0.172251
-0.527698
-0.431537
-0.0375905
0.109704
-2.95864
-0.304698
-0.412332
-0.257716
-0.296304
-1.28016
-2.05278
-1.91849
-1.89288
2.79571
3.00102
2.91794
2.79663
2.63608
2.42727
2.15127
1.77911
1.2895
0.753891
0.417283
0.378657
0.657757
0.926836
1.51862
3.65494
0.243627
0.113056
-0.818481
-2.1046
-2.31339
-2.24561
-2.19901
2.32569
2.50994
2.43926
2.34612
2.23585
2.1045
1.94397
1.74909
1.52673
1.30873
1.15048
1.08521
1.11538
1.12651
1.07318
1.24079
1.31266
-0.0158378
-0.696299
-2.71964
-2.70666
-2.63358
-2.5526
1.89359
2.04649
1.97929
1.9127
1.85798
1.81205
1.76982
1.7295
1.69201
1.65437
1.60331
1.53126
1.46699
1.4228
1.33893
1.35969
0.730058
-4.78293
-3.10994
-3.15797
-3.08337
-2.98974
-2.895
1.50142
1.59459
1.50811
1.46313
1.46901
1.51394
1.58793
1.68499
1.79754
1.90046
1.93654
1.86417
1.74676
1.76371
1.84501
1.93133
0.608897
-3.99672
-3.69019
-3.47021
-3.40178
-3.32301
-3.22876
1.18105
1.12551
0.967562
0.949931
1.03095
1.17682
1.36537
1.58633
1.8325
2.07879
2.22915
2.13541
1.83903
1.98279
2.0857
0.998965
-1.28438
-4.26941
-4.00664
-3.78609
-3.74724
-3.68133
-3.57189
1.04313
0.522547
0.228401
0.301805
0.495222
0.763252
1.06429
1.38568
1.72978
2.12347
2.43301
2.66436
0.640355
1.89484
0.224816
-2.92999
-5.71742
-5.17721
-4.60754
-4.33578
-4.2206
-4.09082
-3.93309
-0.0116831
-0.886256
-0.918805
-0.573723
-0.193161
0.232564
0.643556
1.01069
1.32021
1.64262
1.78846
-0.510452
-4.30924
-5.89847
-8.79424
-8.1041
-7.02636
-6.2723
-5.59427
-5.10429
-4.79318
-4.53888
-4.30798
-2.99642
-6.11532
-2.62919
-1.87246
-1.123
-0.475164
0.0544393
0.439851
0.471535
0.056125
-3.48729
-6.84725
-9.25687
-9.73518
-9.659
-9.0957
-8.33484
-7.55916
-6.70259
-5.92845
-5.38531
-4.99194
-4.67965
14.6675
-4.63991
-3.67518
-3.30476
-2.23007
-1.38802
-1.01931
-0.370994
-0.376271
-0.731712
-5.89938
-9.19762
-9.42297
-9.87573
-10.1253
-9.94861
-9.34943
-8.56311
-7.63984
-6.6555
-5.92199
-5.41043
-5.02486
8.90011
-0.0168803
-1.92769
-2.41037
-2.71791
-3.07643
-2.77693
-1.8419
-1.52512
-2.39449
-9.74552
-9.86699
-10.0432
-10.4079
-10.717
-10.7663
-10.2383
-9.37232
-8.38338
-7.22461
-6.35414
-5.76012
-5.32131
2.27929
-2.26602
-2.50565
-3.1075
-3.66209
-4.24036
-4.84559
-4.40544
-4.05411
-9.13891
-10.7452
-10.7743
-10.5875
-10.7148
-11.1951
-11.7593
-11.44
-9.90299
-8.8162
-7.56135
-6.64304
-6.01676
-5.55306
0.626779
-2.34901
-2.94076
-3.99698
-4.70235
-5.32988
-7.05032
-7.42258
-9.05724
-11.3951
-11.9399
-12.087
-11.1162
-10.5727
-11.2187
-11.4288
-10.7399
-9.66514
-8.80606
-7.65172
-6.78403
-6.17321
-5.71379
1.38327
-2.23223
-3.06633
-4.54671
-5.48627
-7.17659
-8.54966
-9.26898
-11.5331
-12.9108
-13.5208
-13.2916
-11.7502
-10.6734
-10.9243
-10.6392
-10.0653
-9.48035
-8.63175
-7.57699
-6.80085
-6.23626
-5.80544
0.949849
-2.11705
-3.50068
-4.9431
-6.11928
-7.66562
-7.86611
-9.50377
-14.1138
-14.266
-14.3275
-13.0584
-12.0696
-11.7301
-10.4902
-10.0551
-9.90111
-9.4092
-8.33631
-7.38192
-6.71524
-6.2199
-5.8365
-1.7748
-3.81139
-4.96682
-5.65721
-5.75394
-5.67499
-5.73284
-7.37436
-12.2724
-14.7628
-13.7076
-13.0807
-11.412
-9.70747
-9.3807
-10.1124
-9.74704
-8.93927
-7.83175
-7.08298
-6.55192
-6.14431
-5.82084
-1.42757
-5.23357
-6.53824
-6.54908
-5.50469
-4.25332
-3.58166
-4.83585
-8.1065
-10.5318
-10.7246
-10.8032
-9.97785
-8.84586
-8.54836
-9.02055
-8.71485
-7.94053
-7.2398
-6.74173
-6.35158
-6.03579
-5.77572
0.606282
-6.20621
-7.92272
-7.41595
-5.71298
-4.32189
-3.79284
-4.38326
-5.99319
-7.69006
-8.54927
-8.79696
-8.58129
-8.17844
-7.92567
-7.79446
-7.51716
-7.12254
-6.75159
-6.42989
-6.15461
-5.91937
-5.71784
-3.08101
-6.52331
-8.35303
-7.71732
-5.87622
-4.75278
-4.41225
-4.72285
-5.53365
-6.45896
-7.11103
-7.43122
-7.4986
-7.40527
-7.24984
-7.07125
-6.85976
-6.62256
-6.39049
-6.17627
-5.98364
-5.81212
-5.66007
-4.75026
-5.10532
-6.36046
-6.28651
-5.50026
-4.9671
-4.81597
-4.98331
-5.40175
-5.91287
-6.34555
-6.62717
-6.76258
-6.77654
-6.70573
-6.58393
-6.4367
-6.27952
-6.12544
-5.98023
-5.84591
-5.72281
-5.61075
-4.72858
-4.81864
-4.50611
-4.88737
-5.01357
-4.97223
-4.9814
-5.10761
-5.34998
-5.65001
-5.93132
-6.14417
-6.27237
-6.31804
-6.29604
-6.22896
-6.13533
-6.0335
-5.93152
-5.83363
-5.7413
-5.65492
-5.57468
-4.54176
-4.50811
-4.32405
-4.57757
-4.82675
-4.94853
-5.0379
-5.15574
-5.31913
-5.51044
-5.69668
-5.84941
-5.95289
-6.00312
-6.00601
-5.97396
-5.92067
-5.85791
-5.79265
-5.7286
-5.6672
-5.60897
-5.55414
-4.61108
-4.52879
-4.47924
-4.63878
-4.83011
-4.96675
-5.07461
-5.18328
-5.30548
-5.43736
-5.56531
-5.67423
-5.75343
-5.7988
-5.81259
-5.80149
-5.77393
-5.73772
-5.69827
-5.65865
-5.62038
-5.58398
-5.54958
-4.77932
-4.68092
-4.68506
-4.79311
-4.92313
-5.03381
-5.13048
-5.22308
-5.31715
-5.41227
-5.50272
-5.58062
-5.6397
-5.67723
-5.69406
-5.69383
-5.68165
-5.66261
-5.64075
-5.6186
-5.59755
-5.57811
-5.56016
-4.97912
-4.87199
-4.89509
-4.97272
-5.05903
-5.13942
-5.21503
-5.28744
-5.35809
-5.42679
-5.49065
-5.54558
-5.58828
-5.61724
-5.63284
-5.63716
-5.63334
-5.62478
-5.61429
-5.60415
-5.59561
-5.58909
-5.58417
-5.19686
-5.0845
-5.10904
-5.16314
-5.21849
-5.27238
-5.32548
-5.37706
-5.42684
-5.47415
-5.51725
-5.5541
-5.58316
-5.60368
-5.61588
-5.62098
-5.62094
-5.61799
-5.61425
-5.61168
-5.61166
-5.61461
-5.61976
-5.42766
-5.30903
-5.32781
-5.36192
-5.39357
-5.42501
-5.45713
-5.48893
-5.51962
-5.54832
-5.57404
-5.5959
-5.61327
-5.62579
-5.6336
-5.63741
-5.63834
-5.63777
-5.63718
-5.63831
-5.64327
-5.65282
-5.66547
-5.67313
-5.54261
-5.55241
-5.56781
-5.57994
-5.59238
-5.60568
-5.61908
-5.63198
-5.64389
-5.65446
-5.66341
-5.67054
-5.67571
-5.67898
-5.68064
-5.68113
-5.68107
-5.68131
-5.6824
-5.68839
-5.70256
-5.72124
185.564
178.859
181.174
191.731
98.2578
85.8802
85.6893
89.9048
74.3661
84.1834
83.8381
81.5944
65.9844
75.0688
74.455
71.6209
42.4479
51.9862
52.8242
50.0273
26.8274
26.3294
26.0539
25.3295
26.5108
26.0707
25.744
25.5605
26.7403
26.3236
25.9626
25.667
18.6915
18.5612
22.8339
17.9493
-0.736673
-0.131682
0.938304
-0.561606
-1.11808
-1.16338
-1.12026
-0.96872
-1.68025
-1.56915
-1.43403
-1.31652
-1.89909
-1.80054
-1.69151
-1.59002
-1.82525
-1.82886
-1.80522
-1.76593
-1.9553
-1.97249
-1.96873
-1.94953
-2.20878
-2.20808
-2.1975
-2.17697
-2.5114
-2.48954
-2.46406
-2.43424
-2.82425
-2.78695
-2.74869
-2.7092
-3.14012
-3.09152
-3.04274
-2.99404
-3.46247
-3.40239
-3.3428
-3.28421
-3.79307
-3.71869
-3.64639
-3.57646
-4.12731
-4.0355
-3.94843
-3.86579
-4.45379
-4.34322
-4.24062
-4.14495
-4.75723
-4.62948
-4.51282
-4.40546
-5.02281
-4.88232
-4.75513
-4.63909
-5.23949
-5.09254
-4.95991
-4.83948
-5.40184
-5.25539
-5.12314
-5.00326
-5.51007
-5.37075
-5.24454
-5.13001
-5.56988
-5.44313
-5.32769
-5.22249
-5.5911
-5.48066
-5.37924
-5.28614
-5.58597
-5.49348
-5.40764
-5.32813
-5.56658
-5.49177
-5.42162
-5.35609
-5.54299
-5.48432
-5.42885
-5.37671
-5.52259
-5.47791
-5.4354
-5.39526
-5.51042
-5.47751
-5.44602
-5.4161
-5.50958
-5.48653
-5.46432
-5.44305
-5.52141
-5.50671
-5.49246
-5.47872
-5.54558
-5.53798
-5.53059
-5.5235
-5.58068
-5.57896
-5.57733
-5.57586
-5.62498
-5.62787
-5.63072
-5.63358
-5.67713
-5.68333
-5.68932
-5.69512
-5.73757
-5.74599
-5.75393
-5.76138
193.828
219.289
75.6824
9.26564
-9.84935
-9.20654
-6.26685
181.879
172.612
179.506
372.821
430.384
455.432
242.275
195.703
231.48
282.814
357.139
749.105
114.292
106.839
50.7589
-3.90262
-13.5521
-20.9525
30.7234
172.093
149.329
159.344
282.223
245.039
194.589
68.0274
19.2909
126.889
321.367
365.271
521.908
78.5084
71.3905
83.7544
17.5786
28.5882
124.26
261.604
256.938
201.497
193.219
233.507
115.334
57.1785
13.2117
-25.0166
-27.4105
206.466
279.685
222.127
71.1627
40.1825
109.949
86.8399
122.419
310.855
416.717
332.358
266.506
243.575
200.482
25.871
13.9409
7.47104
10.8597
-28.9189
29.3961
139.016
121.616
63.7118
48.6174
27.9417
86.4556
98.1504
233.466
279.941
241.033
148.271
24.4555
22.8775
-22.8546
15.3861
6.91348
7.33642
5.10442
18.4828
42.0552
24.4527
23.4887
-41.9424
4.20997
61.8669
32.5971
5.61978
5.05827
7.5616
6.48136
6.3627
6.11718
5.81436
7.6508
8.69772
9.31175
12.9751
28.0778
22.7295
26.1787
25.2891
25.4816
35.1274
0.0362339
2.03543
1.79799
2.75636
5.18271
5.86238
5.99261
5.54782
4.92947
4.70924
7.34768
-0.392646
16.2013
15.7739
21.4768
25.869
25.2871
24.9912
16.7856
1.04126
1.40344
0.327817
0.85023
3.38154
4.50864
4.54808
3.79713
3.97483
3.94488
1.38703
-1.88348
0.145498
2.18779
4.97366
17.6048
15.7158
12.8982
5.95475
0.561027
0.887885
0.244321
0.233527
0.677612
0.772165
1.296
1.25962
2.24246
1.93098
-0.288413
-1.74514
-0.858561
0.0208427
0.00166875
3.23649
-0.61403
-0.506387
0.680447
0.570744
0.843787
0.311247
-0.0354142
-0.0600919
-0.0454587
-0.023695
-0.571785
-0.215793
0.0309008
-1.7613
-3.15214
-2.28163
-1.28493
-0.911478
-0.753154
-0.9355
-0.889901
-0.571955
-0.304954
-0.184735
-0.288961
-0.311003
-0.368304
-0.414883
-0.411902
-0.847665
-0.844837
-0.792488
-2.21457
-3.63291
-2.74747
-1.70856
-1.35531
-1.40611
-1.19638
-1.08952
-0.886329
-0.66639
-0.569832
-0.569938
-0.568269
-0.588709
-0.592903
-0.583607
-0.815946
-0.602634
-0.643655
-1.08064
-2.0946
-1.96481
-1.50847
-1.3307
-1.17902
-1.48099
-1.343
-1.18745
-1.03629
-0.929884
-0.864103
-0.826931
-0.795755
-0.738897
-0.694625
-0.811247
-0.282851
-0.460953
-0.653524
-1.10337
-1.27746
-1.23793
-1.16402
-0.926401
-1.70108
-1.57701
-1.4485
-1.32597
-1.2233
-1.1428
-1.08237
-1.02562
-0.942268
-0.856
-0.8862
-0.660276
-0.269294
-0.448767
-0.785287
-1.0261
-1.10178
-0.958825
-0.686764
-1.90753
-1.80904
-1.69897
-1.58996
-1.49123
-1.40724
-1.33572
-1.26775
-1.18628
-1.08851
-0.920443
-0.781056
-0.107452
-0.191216
-0.604453
-0.933229
-0.911374
-0.573572
-0.348305
-2.13809
-2.04865
-1.94753
-1.84536
-1.74943
-1.66377
-1.5879
-1.51777
-1.45065
-1.4008
-1.17024
-1.14823
-0.636046
-0.184695
-0.581719
-1.0142
-0.618522
-0.0223371
0.171788
-2.38908
-2.29717
-2.19755
-2.09735
-2.00209
-1.91545
-1.83833
-1.77006
-1.71352
-1.69925
-1.51489
-1.51545
-1.56992
-1.26242
-1.28622
-1.56957
-0.915744
-0.719617
-0.89018
-2.65458
-2.55343
-2.44959
-2.3473
-2.25061
-2.16276
-2.08536
-2.01947
-1.96873
-1.95197
-1.88944
-1.86706
-1.94605
-1.92714
-1.82939
-1.92953
-1.65921
-1.83959
-2.0803
-2.92876
-2.81452
-2.70243
-2.59495
-2.49504
-2.40534
-2.32755
-2.26328
-2.21613
-2.19385
-2.17244
-2.19122
-2.26343
-2.41424
-2.2636
-2.2567
-2.71233
-3.15096
-3.34223
-3.20723
-3.07722
-2.95409
-2.83933
-2.73494
-2.64264
-2.56365
-2.49932
-2.45176
-2.42207
-2.40964
-2.4416
-2.53658
-2.80498
-3.03833
-3.01478
-3.61327
-4.30735
-4.58539
-3.48618
-3.33824
-3.20243
-3.07929
-2.96966
-2.87406
-2.79292
-2.72694
-2.67688
-2.64263
-2.62628
-2.65922
-2.77406
-3.19197
-3.62106
-3.8105
-3.73948
-3.89526
-3.70824
-3.76092
-3.59394
-3.44504
-3.31337
-3.19827
-3.09895
-3.01494
-2.94624
-2.89281
-2.85369
-2.82783
-2.82899
-2.90255
-3.29857
-3.76795
-3.8609
-3.32297
-3.27659
-2.86158
-4.02551
-3.84013
-3.67909
-3.53965
-3.41947
-3.3165
-3.22947
-3.1577
-3.10052
-3.05607
-3.02521
-2.98474
-2.97296
-3.2731
-3.38016
-3.04334
-2.84113
-2.80058
-2.08648
-4.27322
-4.07221
-3.90134
-3.75577
-3.63162
-3.52589
-3.43654
-3.36228
-3.30161
-3.25128
-3.208
-3.16935
-3.16356
-3.37707
-3.56627
-3.61718
-3.06997
-2.75843
-1.88089
-4.49759
-4.28581
-4.10858
-3.9593
-3.8331
-3.72636
-3.63653
-3.56152
-3.49909
-3.44531
-3.39698
-3.35357
-3.32659
-3.35969
-3.74925
-4.11285
-4.06543
-3.65021
-3.8255
-4.69359
-4.47733
-4.29792
-4.14794
-4.0221
-3.91696
-3.82953
-3.75717
-3.69786
-3.64851
-3.60422
-3.56266
-3.54183
-3.75082
-3.96438
-4.05446
-4.11331
-3.86182
-3.92543
-4.85839
-4.64431
-4.46716
-4.31945
-4.19662
-4.09623
-4.01697
-3.95768
-3.9133
-3.88443
-3.86481
-3.84598
-3.86386
-4.15888
-4.97693
-4.28678
-4.50237
-4.42448
-4.20285
-4.99141
-4.78572
-4.61485
-4.472
-4.35406
-4.26142
-4.19961
-4.17132
-4.16107
-4.15945
-4.17721
-4.19403
-4.21568
-4.38885
-4.8422
-4.82567
-4.75061
-5.02029
-4.19185
-5.09447
-4.90255
-4.74124
-4.6046
-4.49116
-4.40607
-4.36801
-4.38894
-4.37252
-4.33142
-4.37082
-4.44032
-4.46681
-4.49332
-4.60441
-4.6929
-4.56416
-4.38143
-3.87075
-5.17185
-4.99799
-4.84893
-4.71852
-4.60477
-4.51608
-4.50513
-4.57544
-4.52928
-4.47853
-4.51416
-4.54613
-4.56419
-4.54696
-4.56944
-4.6281
-4.43592
-4.12298
-3.84746
-5.22959
-5.0773
-4.94352
-4.82019
-4.69901
-4.5801
-4.54029
-4.73456
-4.78387
-4.85333
-4.79663
-4.74024
-4.68542
-4.6618
-4.71718
-4.78311
-4.50366
-4.17584
-3.99883
-5.27426
-5.14648
-5.03292
-4.92403
-4.79922
-4.61204
-4.53468
-5.0859
-5.21924
-5.16979
-5.05751
-5.01939
-4.918
-4.83527
-4.82075
-4.79408
-4.59597
-4.45958
-4.37133
-5.31136
-5.20953
-5.12182
-5.04435
-4.96513
-4.8508
-5.00137
-5.91738
-5.63723
-5.38726
-5.178
-5.09985
-5.07885
-5.04377
-5.00892
-4.92732
-4.80578
-4.73958
-4.62598
-5.34486
-5.26716
-5.20507
-5.16535
-5.16998
-5.26737
-5.37891
-5.69335
-5.60226
-5.41503
-5.25125
-5.1774
-5.14778
-5.12883
-5.11556
-5.0554
-4.9521
-4.85605
-4.80532
-5.37837
-5.32035
-5.27629
-5.2565
-5.30759
-5.41197
-5.42362
-5.38656
-5.40886
-5.37791
-5.30335
-5.25862
-5.22838
-5.19973
-5.16507
-5.1118
-5.04679
-4.98768
-4.96368
-5.416
-5.37392
-5.34177
-5.32827
-5.37286
-5.43894
-5.41907
-5.38542
-5.41211
-5.41055
-5.37726
-5.34725
-5.31873
-5.2887
-5.25392
-5.21166
-5.1671
-5.13048
-5.1119
-5.46114
-5.43366
-5.41303
-5.40654
-5.46312
-5.52882
-5.49904
-5.48438
-5.4905
-5.48742
-5.46837
-5.44403
-5.41769
-5.38941
-5.35849
-5.32529
-5.29332
-5.26826
-5.25421
-5.51451
-5.50121
-5.49394
-5.49979
-5.58011
-5.6668
-5.62697
-5.60069
-5.59136
-5.5828
-5.567
-5.54613
-5.52254
-5.49719
-5.47061
-5.444
-5.4198
-5.40123
-5.39035
-5.57424
-5.57355
-5.57817
-5.59809
-5.68745
-5.83249
-5.77436
-5.7157
-5.6957
-5.68446
-5.67047
-5.6524
-5.6315
-5.60903
-5.5861
-5.56406
-5.54471
-5.53003
-5.52124
-5.63754
-5.64586
-5.65894
-5.68372
-5.7514
-5.92892
-5.92027
-5.81897
-5.79715
-5.78893
-5.77779
-5.76225
-5.74357
-5.72332
-5.70293
-5.68381
-5.66737
-5.65503
-5.64772
-5.70265
-5.71595
-5.73172
-5.75306
-5.78391
-5.86267
-5.89925
-5.881
-5.89394
-5.89706
-5.88978
-5.87595
-5.85843
-5.83933
-5.82029
-5.8027
-5.78777
-5.77662
-5.77033
-5.77067
-5.78557
-5.80117
-5.82158
-5.84898
-5.93325
-5.81658
-5.95373
-6.00499
-6.01546
-6.00855
-5.99408
-5.97615
-5.95696
-5.93808
-5.92086
-5.9064
-5.89548
-5.88926
706.947
710.787
716.937
728.312
749.029
776.19
808.028
842.317
878.106
914.806
950.747
982.889
1003.29
1006.64
1013.4
1006.13
961.847
891.525
864.077
846.103
855.989
842.584
832.167
645.984
650.467
656.008
666.709
689.049
716.721
748.542
782.688
818.651
855.761
892.324
925.116
949.042
952.248
951.07
942.677
902.431
839.589
791.362
779.557
790.337
779.194
771.015
581.362
587.081
590.799
600.132
627.712
656.19
687.77
722.034
758.533
796.601
834.603
869.265
895.337
901.142
897.635
884.76
849.537
797.894
733.914
718.076
722.1
713.279
707.125
513.768
519.983
517.05
523.86
565.433
595.526
626.278
660.349
697.49
737.091
777.505
815.28
845.131
857.685
851.647
830.083
791.331
739.349
681.51
656.46
653.211
646.313
641.428
442.932
448.993
439.131
448.212
504.496
534.911
563.902
597.533
635.454
677.094
720.853
763.011
797.51
814.655
807.636
778.327
731.095
673.577
618.05
590.393
583.805
578.388
574.108
368.746
375.847
366.352
382.206
444.487
473.155
500.18
533.389
572.218
616.33
664.361
712.273
752.708
774.379
766.62
728.569
668.325
601.451
546.027
519.316
513.498
509.674
505.075
291.468
302.228
301.739
325.805
380.916
408.248
434.544
467.673
507.495
554.383
607.591
662.793
710.886
737.994
729.383
680.294
601.778
521.639
466.467
443.272
442.235
440.673
434.045
212.437
229.019
241.331
271.84
312.691
339.585
366.769
400.195
440.936
490.69
549.919
614.154
672.062
706.22
696.598
632.79
529.007
432.434
378.686
362.158
370.918
370.53
358.058
390.957
445.65
364.9
358.921
340.046
403.505
698.129
812.047
842.706
911.656
905.178
793.742
1006.45
1067.21
772.934
734.295
719.934
715.103
907.324
300.032
310.536
289.91
321.65
281.048
315.774
623.932
760.45
761.478
861.38
811.157
714.076
906.417
939.502
670.895
672.13
663.758
574.552
821.242
298.087
281.295
283.586
295.158
275.066
274.204
550.811
705.442
639.637
789.02
754.672
641.77
716.345
717.108
539.794
608.292
647.984
461.756
730.595
289.645
281.722
268.824
272.737
273.741
274.176
534.688
681.921
573.079
776.104
735.368
600.218
561.463
420.882
392.547
555.512
565.465
458.962
726.613
291.811
271.201
258.039
270.22
274.403
270.623
569.139
762.32
567.499
757.324
679.02
605.978
477.245
228.286
275.417
494.288
502.765
515.38
754.639
278.072
250.04
220.393
201.338
188.41
167.986
528.631
782.198
473.457
648.437
601.754
627.843
354.989
194.59
218.447
377.946
426.938
586.134
806.987
234.418
222.072
110.248
47.9634
7.71423
-2.6635
225.713
581.312
378.099
514.379
531.544
616.1
329.769
201.644
222.327
272.604
327.905
613.204
855.083
215.581
167.923
43.7652
-4.2245
-9.16438
-8.21191
85.564
338.206
262.398
412.302
447.97
520.402
425.748
218.265
225.477
255.013
241.972
580.035
868.88
102.215
137.312
166.673
193.009
220.092
248.038
277.382
311.219
352.604
405.648
473.574
552.109
626.313
672.582
663.223
573.099
415.618
286.025
239.598
231.542
266.676
280.985
230.625
13.5743
19.1891
24.7765
32.9817
60.8134
92.9509
125.486
157.031
195.025
248.478
331.843
443.276
555.965
631.472
619.431
465.018
192.321
126.229
135.345
155.866
206.308
184.02
111.681
12.8267
12.3905
12.232
12.1531
11.3632
12.1491
15.6876
22.9504
34.7834
55.987
144.159
308.962
479.501
599.142
607.635
423.78
152.366
116.894
110.556
76.5398
51.9352
65.0309
65.5059
12.2099
12.0286
11.7596
11.3234
10.9174
11.0043
11.2429
11.409
11.6139
11.2116
16.9687
147.253
341.398
429.215
346.575
261.669
76.9769
43.6767
33.7008
29.0905
29.0301
30.0171
48.0667
11.3675
11.2215
10.8868
10.3633
10.3304
10.6771
11.0087
11.2418
11.4057
11.5173
10.335
40.8604
143.161
200.461
196.283
144.399
32.3717
30.2596
29.241
28.6667
28.3479
28.1549
28.2287
10.4639
10.3528
10.1516
9.95716
10.1762
10.5873
10.8814
11.1205
11.2284
11.3118
4.59516
-10.0004
42.2619
104.165
127.456
84.788
33.4382
30.1239
28.8098
28.2809
27.6838
27.3615
27.1736
9.6432
9.60652
9.61125
9.76551
10.2098
10.68
10.7565
10.9357
10.9147
5.1303
2.82219
-1.23092
0.160233
1.56129
29.8483
42.7166
38.7664
28.3492
27.429
27.7755
27.1761
26.8131
26.8185
8.80138
8.80758
8.91364
9.21885
9.89257
10.9146
10.2056
7.58458
2.91148
4.174
4.92118
1.67819
-0.419035
-0.5325
0.156751
14.5431
36.7559
20.469
25.2394
25.7637
27.3784
26.7633
27.118
7.89012
7.90198
7.99672
8.16784
8.4451
8.11929
4.03354
4.62919
1.81251
2.38081
3.94354
1.14143
-0.0575648
-0.113932
0.297351
0.19728
8.0521
8.86465
22.8093
44.3667
25.8747
14.8154
15.1767
7.02836
6.97903
6.98191
6.87961
6.45734
4.90998
0.719372
0.536296
1.23357
2.14164
2.30905
0.317826
0.0278882
0.273158
0.340399
0.417219
0.535183
3.52893
7.90226
16.8088
-0.102742
-0.10286
-0.719002
6.16678
6.10915
6.03515
5.80423
5.28771
4.30453
2.95118
2.63232
2.47365
1.78998
0.568122
-4.31109
0.197974
0.294121
0.244858
0.167961
-0.181264
-0.00205395
1.31606
4.51181
-0.24028
-0.84015
-1.07643
5.42484
5.35997
5.23534
4.99626
4.61564
4.13656
3.85411
4.37005
4.09689
-0.846929
-4.18609
0.501495
0.231803
0.246391
0.143091
0.196201
-0.030842
-0.0975963
-0.082646
0.862671
-3.70128
-1.80135
-1.74065
4.76534
4.6803
4.5451
4.32754
4.03317
3.71701
3.53235
3.49182
1.32759
0.121189
0.64834
0.256298
0.487921
0.961598
-2.52152
-0.0152516
-0.281108
-0.232658
-0.1448
-0.242028
-0.973878
-1.81943
-1.94528
4.14422
4.06606
3.92825
3.7306
3.46855
3.13839
2.6874
1.78071
-0.171037
-0.940929
-0.627513
-0.146619
0.136691
-1.97282
-11.9996
-0.913901
-0.477701
-0.325699
-0.281098
-1.73226
-1.71829
-1.68417
-1.80107
3.55588
3.49049
3.36865
3.19551
2.96326
2.65191
2.20683
1.49531
0.345255
-0.439742
-0.511798
-0.286309
0.172318
-1.32666
-1.80745
-0.245557
-0.396815
-0.160172
-0.705866
-2.09302
-1.98816
-1.88072
-1.93016
3.01935
2.96366
2.862
2.72159
2.53866
2.29918
1.97914
1.54777
1.00988
0.552277
0.357646
0.482301
0.816863
1.12966
3.10518
0.986441
0.152237
-0.0406332
-1.27724
-2.28299
-2.29048
-2.21072
-2.20424
2.5298
2.47754
2.39489
2.29319
2.17328
2.02839
1.85077
1.63994
1.41366
1.21946
1.10502
1.09135
1.13995
1.0936
1.10612
1.46366
0.262094
-0.446118
-1.62348
-2.70905
-2.68073
-2.58733
-2.52758
2.07353
2.01409
1.94466
1.88393
1.83425
1.7907
1.74936
1.71037
1.67376
1.63162
1.56895
1.49511
1.44548
1.38553
1.32077
1.18389
-1.54847
-2.70675
-3.21215
-3.11396
-3.04115
-2.94009
-2.85354
1.64627
1.54808
1.47883
1.4604
1.48735
1.54775
1.63386
1.74025
1.85308
1.93109
1.91225
1.79155
1.73983
1.81687
1.88803
2.01877
-1.5039
-3.92562
-3.55174
-3.4324
-3.36439
-3.27726
-3.17804
1.24885
1.02713
0.94375
0.980451
1.09749
1.26663
1.47215
1.70702
1.95933
2.1745
2.22178
1.99869
1.85519
2.08692
1.91888
0.079513
-2.64827
-4.19009
-3.8567
-3.76302
-3.72115
-3.63028
-3.50937
0.86415
0.296497
0.246429
0.385553
0.623406
0.910856
1.22257
1.55441
1.91679
2.32086
2.53695
0.952263
1.50955
1.49583
-1.38005
-4.55847
-5.49077
-4.85422
-4.43673
-4.27372
-4.16069
-4.01374
-3.85196
0.155768
-1.10376
-0.728873
-0.3981
0.0206812
0.44093
0.836334
1.17225
1.45613
1.86403
0.750324
-2.74233
-4.30659
-7.93999
-8.66604
-7.51515
-6.64405
-5.92288
-5.31916
-4.93586
-4.66269
-4.42058
-4.2016
-8.44773
-3.99069
-2.07451
-1.51524
-0.771596
-0.210464
0.289118
0.500169
0.340277
-0.781026
-5.15442
-8.59991
-9.6365
-9.73901
-9.43641
-8.71208
-7.95694
-7.1372
-6.28808
-5.6314
-5.1757
-4.82784
-4.54501
-0.644871
-4.45728
-3.49504
-2.87789
-1.68332
-1.19917
-0.639261
-0.337849
-0.424903
-2.25995
-8.35146
-9.3043
-9.65281
-10.0392
-10.0981
-9.68876
-8.96622
-8.12771
-7.12898
-6.25334
-5.64595
-5.20553
-4.86403
6.64853
-1.6086
-2.14292
-2.60654
-2.85644
-3.22014
-2.38339
-1.71002
-1.34817
-8.03202
-9.86125
-9.92188
-10.2162
-10.5853
-10.7876
-10.5832
-9.80934
-8.91958
-7.78996
-6.74488
-6.0322
-5.52578
-5.14109
0.544067
-2.32525
-2.81681
-3.36958
-3.98692
-4.79695
-4.71563
-4.36754
-4.92816
-10.71
-10.7405
-10.6761
-10.5958
-10.9244
-11.493
-11.846
-10.6095
-9.38459
-8.17103
-7.05355
-6.3042
-5.76888
-5.36342
-1.34168
-2.54894
-3.50456
-4.40149
-4.96274
-6.00579
-7.09156
-8.1382
-9.63519
-11.8393
-12.0892
-11.7243
-10.6667
-10.8238
-11.4393
-11.1983
-10.1279
-9.27825
-8.22095
-7.17463
-6.45559
-5.92801
-5.52516
-0.734805
-2.56306
-3.82972
-5.09313
-6.13532
-8.04215
-8.43947
-10.0821
-12.3003
-13.3006
-13.56
-12.5957
-10.9604
-10.8048
-10.8366
-10.3693
-9.77652
-9.11962
-8.08223
-7.15394
-6.4987
-6.00692
-5.62705
-0.658933
-2.90051
-4.26028
-5.5267
-6.93074
-7.99111
-8.03529
-11.3785
-14.5829
-14.3264
-13.6213
-12.6079
-11.906
-11.3222
-10.1558
-9.9816
-9.74838
-8.90103
-7.81806
-7.02071
-6.451
-6.01654
-5.67582
-2.86546
-4.30883
-5.42734
-5.74708
-5.71855
-5.65099
-6.12138
-9.42982
-14.5812
-14.2212
-13.5672
-12.3261
-10.4769
-9.20829
-9.80059
-10.0934
-9.4063
-8.35172
-7.41965
-6.79817
-6.33574
-5.97372
-5.68285
-4.57971
-5.90304
-6.71808
-6.11071
-4.85737
-3.78304
-3.90177
-6.30382
-9.6817
-10.7876
-10.7626
-10.5341
-9.34409
-8.56709
-8.75394
-8.98034
-8.34738
-7.56012
-6.97303
-6.53594
-6.18572
-5.89968
-5.66223
-5.86008
-7.39425
-7.91787
-6.59515
-4.93285
-3.92695
-3.94584
-5.10478
-6.91328
-8.23204
-8.72546
-8.74262
-8.37447
-8.02558
-7.85517
-7.68543
-7.32051
-6.9317
-6.58444
-6.28686
-6.03239
-5.81475
-5.6278
-4.2189
-7.76003
-8.34778
-6.77301
-5.20118
-4.49709
-4.49054
-5.08668
-6.01106
-6.83159
-7.30618
-7.49252
-7.46456
-7.33111
-7.16783
-6.97031
-6.74201
-6.50483
-6.28075
-6.07725
-5.89533
-5.73376
-5.59068
-4.47387
-5.76413
-6.48939
-5.90877
-5.179
-4.84964
-4.86212
-5.16937
-5.65764
-6.14655
-6.50554
-6.71208
-6.78249
-6.74942
-6.64956
-6.51249
-6.35839
-6.20159
-6.05155
-5.91166
-5.78297
-5.66541
-5.55872
-4.88204
-4.5861
-4.678
-4.99505
-4.99427
-4.96471
-5.02834
-5.21693
-5.49774
-5.79709
-6.04786
-6.21907
-6.30481
-6.31422
-6.26651
-6.18371
-6.08487
-5.98217
-5.88194
-5.78673
-5.69735
-5.61402
-5.5369
-4.5877
-4.36491
-4.41934
-4.72228
-4.89738
-4.99239
-5.09121
-5.23222
-5.41326
-5.60625
-5.77851
-5.90781
-5.9845
-6.00981
-5.99347