/*--------------------------------*- C++ -*----------------------------------*\
| =========                 |                                                 |
| \\      /  F ield         | OpenFOAM: The Open Source CFD Toolbox           |
|  \\    /   O peration     | Version:  v1912                                 |
|   \\  /    A nd           | Website:  www.openfoam.com                      |
|    \\/     M anipulation  |                                                 |
\*---------------------------------------------------------------------------*/
FoamFile
{
    version     2.0;
    format      ascii;
    class       volScalarField;
    location    "0.8";
    object      p_rgh;
}
// * * * * * * * * * * * * * * * * * * * * * * * * * * * * * * * * * * * * * //

dimensions      [1 -1 -2 0 0 0 0];


internalField   nonuniform List<scalar> 
9072
(
721.05
723.067
728.462
736.049
752.478
776.59
806.405
839.671
874.76
911.129
947.751
982.221
1010.34
1019.28
1025.14
1026.68
1005.05
939.877
888.875
865.177
867.883
865.271
850.363
717.224
721.015
727.214
733.031
750.711
775.759
805.842
838.946
874.04
910.711
947.854
982.958
1012.3
1022.81
1024.12
1022.94
1001.02
944.2
886.912
839.474
857.471
859.475
847.497
709.542
715.908
722.577
724.487
745.894
774.033
804.062
837.028
872.465
909.871
948.208
985.027
1016.44
1032.18
1030.68
1025.97
1002.34
956.318
877.391
831.628
854.782
850.67
841.754
698.692
707.801
712.48
705.026
736.359
772.517
801.803
834.189
869.852
908.34
948.657
988.291
1022.98
1045.32
1047.79
1034.32
1003.95
958.004
897.991
854.84
846.434
841.235
834.386
684.85
696.395
697.551
684.243
728.465
771.828
798.964
830.287
866.134
906.018
949.035
992.602
1031.88
1059.06
1064.3
1045.7
1006.7
953.145
893.739
850.243
836.427
831.305
825.779
668.544
682.046
682.81
673.05
725.347
770.381
794.82
825.046
861.13
902.66
949.04
997.721
1043.03
1075.72
1083.5
1060.05
1009.44
943.444
879.413
837.924
824.221
820.84
816.003
649.43
665.309
671.301
672.874
708.765
764.656
788.295
818.13
854.594
897.913
948.227
1003.26
1056.35
1095.95
1106.67
1077.46
1011.21
927.502
858.058
818.796
809.364
810.26
805.295
623.527
646.741
662.509
678.841
700.464
753.982
779.069
809.361
846.277
891.313
945.969
1008.69
1071.6
1120.11
1134.7
1097.99
1010.43
901.944
827.584
792.527
792.276
800.184
791.484
460.846
471.685
408.457
376.725
358.437
365.457
546.966
793.42
835.973
890.497
940.171
871.892
840.269
1153.45
908.842
730.478
750.409
757.959
789.722
475.081
441.594
295.783
323.189
304.896
337.743
499.229
804.261
825.05
878.28
946.883
774.011
779.98
1056.89
820.257
676.099
745.887
712.926
662.912
535.165
323.551
282.203
340.69
295.014
275.662
372.608
820.621
784.572
842.087
875.369
752.71
658.255
896.4
662.804
605.285
760.478
611.187
593.615
465.712
289.943
362.136
328.977
272.658
275.459
333.415
902.684
768.716
848.231
856.936
770.104
602.042
687.053
482.021
549.933
611.469
597.943
677.772
553.041
342.371
376.642
276.049
283.513
278.568
477.248
1065.09
845.465
747.182
893.299
673.165
609.792
399.411
267.68
619.203
709.022
716.653
786.026
554.487
483.92
346.084
506.021
486.547
474.733
530.553
1152.68
693.196
686.831
811.288
631.539
848.444
254.871
225.055
481.44
702.492
772.241
901.491
261.563
402.556
505.049
421.42
360.01
251.655
149.906
1008.64
505.676
491.736
726.363
690.127
893.917
331.785
231.122
310.965
637.933
771.003
1075.52
496.983
543.946
230.161
36.5066
-6.51639
-6.46151
20.8805
782.288
328.248
537.354
516.451
786.586
916.406
535.618
244.207
265.559
279.24
641.428
1036.24
286.796
621.296
654.092
683.547
706.64
736.594
764.443
795.722
832.906
879.553
939.924
1014.39
1093.2
1156.79
1178.79
1131.38
1000.28
836.469
759.781
718.815
697.114
736.019
756.431
13.9276
67.1264
209.237
310.971
531.549
700.742
737.26
768.167
802.192
846.275
913.132
1012.77
1128.92
1228.47
1267.65
1189.39
884.176
296.989
166.477
181.418
296.127
771.093
694.879
13.4565
13.3554
13.0434
13.0134
12.5773
13.013
67.3758
189.462
397.433
591.066
791.17
974.9
1148.59
1304.52
1350.24
873.308
732.492
553.848
161.962
623.17
568.044
622.881
734.329
12.8143
12.9997
12.7938
12.4406
11.9519
11.7887
11.9989
12.2166
12.3859
12.6351
17.0664
773.732
1100.57
1293.91
940.886
684.811
760.178
546.407
428.519
47.8276
30.2336
31.314
632.026
12.0139
12.3068
12.0993
11.613
11.2673
11.4913
11.8646
12.1423
12.3483
12.4742
13.9048
533.347
1078.85
885.944
262.172
237.092
276.977
31.8992
31.0119
30.1845
29.7552
29.7392
29.0771
11.2646
11.5433
11.3972
11.1673
11.1521
11.5348
11.8775
12.131
12.3379
12.5664
22.7934
980.692
887.059
101.77
322.403
495.706
258.254
33.3593
30.9206
29.9543
29.4211
28.8722
28.7503
10.5594
10.8779
10.8533
10.9109
11.2296
11.7476
12.0143
12.0507
12.7665
398.455
701.099
148.386
2.42724
3.54631
344.437
465.611
460.052
62.7393
317.807
29.6692
29.1172
28.4347
28.5139
9.85047
10.1766
10.2232
10.4086
10.8812
11.7802
12.6907
266.501
518.567
393.138
10.3437
5.93991
1.98345
1.14398
2.8681
398.603
483.63
56.802
353.908
363.951
29.3432
28.8775
33.6853
9.12465
9.40177
9.44896
9.57354
9.80004
10.0319
10.5992
181.815
31.1243
3.65718
18.7781
45.8992
2.19708
1.6648
1.99332
2.28229
312.003
38.8709
41.6631
381.532
398.576
375.775
170.176
8.30165
8.61306
8.74488
8.58099
8.36502
7.57368
5.95497
2.56594
2.28812
3.39663
3.93589
16.9451
38.684
2.25926
2.49236
3.19244
2.56699
10.77
120.411
128.862
28.9733
1.61753
1.16821
7.56388
7.90352
7.97324
7.69933
7.34644
6.6123
5.32229
4.45273
4.40298
3.85207
8.38374
85.4698
57.1526
2.48126
2.43438
2.40736
2.19748
1.92491
61.9687
127.853
126.123
0.896423
0.794979
7.01827
7.45234
7.2176
7.01162
6.70211
6.2558
5.81746
5.88885
6.61536
70.121
93.1406
94.4601
2.64927
2.77772
8.8391
2.54411
2.40931
3.36499
2.48378
4.97932
126.792
-0.0480224
0.104117
6.52271
6.82403
6.63499
6.45141
6.19241
5.87464
5.60021
5.55257
5.50128
103.513
104.057
72.412
2.9547
3.49172
145.117
141.245
2.25231
2.18875
2.28905
42.702
88.8023
0.534839
0.061298
6.05372
6.24582
6.13402
5.96715
5.73732
5.44266
5.06735
4.47029
3.64082
4.4695
1.45445
1.7212
2.25028
27.7727
144.539
143.833
2.15098
2.19737
2.40393
23.1698
36.8481
0.463046
0.391722
5.62687
5.78783
5.69065
5.54368
5.3425
5.07459
4.70695
4.15293
3.21684
2.11772
1.73042
1.82369
2.22838
20.9859
158.311
104.267
2.35977
2.52002
20.2338
77.9959
0.20221
0.336553
0.386928
5.2384
5.38111
5.29803
5.17672
5.01616
4.80736
4.53136
4.1592
3.66976
3.13546
2.79867
2.75897
3.03794
3.4112
171.045
170.747
3.2966
3.178
85.1757
54.0525
0.0667551
0.135105
0.18108
4.89357
5.01522
4.94454
4.85141
4.74113
4.60978
4.44925
4.25438
4.03202
3.81406
3.65577
3.59049
3.62067
3.63445
3.60488
3.77367
30.039
5.11318
49.0824
15.0089
-0.201151
-0.127935
-0.0473076
4.58666
4.67696
4.60976
4.54318
4.48846
4.44253
4.4003
4.35998
4.32249
4.28484
4.23379
4.16174
4.09747
4.05328
3.97106
4.00946
19.2139
208.946
-0.448123
-0.527488
-0.452862
-0.359246
-0.264485
4.31969
4.35026
4.26378
4.21881
4.22469
4.26961
4.3436
4.44066
4.55322
4.65613
4.69222
4.61984
4.50641
4.58675
4.67049
4.76924
229.295
224.442
-0.934434
-0.714536
-0.646088
-0.567322
-0.473089
4.12451
4.00638
3.84843
3.8308
3.91182
4.05769
4.24624
4.4672
4.71337
4.95966
5.11002
5.01659
4.73739
4.8911
5.01572
215.769
237.792
11.2091
-1.12576
-0.905219
-0.866366
-0.800461
-0.691019
4.11179
3.52861
3.23446
3.30787
3.50129
3.76932
4.07035
4.39174
4.73584
5.12952
5.43899
7.27522
73.6653
4.93302
242.314
242.404
-0.747784
-2.17078
-1.60148
-1.32971
-1.21453
-1.08475
-0.927027
4.89862
2.24603
2.21244
2.55753
2.93809
3.36381
3.7748
4.14194
4.45158
4.80762
29.4908
224.595
220.975
224.478
100.742
-4.46647
-3.88774
-3.14082
-2.46297
-1.97304
-1.66193
-1.40763
-1.17673
41.0802
-2.84171
0.627774
1.38399
2.13345
2.78128
3.31088
3.6963
3.72893
3.4905
172.332
91.8558
-5.49728
-4.90351
-6.27503
-5.79545
-5.0531
-4.26995
-3.44614
-2.672
-2.12887
-1.73549
-1.42321
60.4099
39.2739
28.6667
11.2737
1.19609
1.99382
2.36539
3.01076
3.00852
3.02185
115.615
-5.72612
-6.01663
-6.46648
-6.69459
-6.4969
-5.82421
-5.1809
-4.2582
-3.27386
-2.54035
-2.02879
-1.64322
46.7198
37.9512
1.74281
1.29203
8.94297
10.1719
1.14301
1.66588
2.02989
65.1358
-5.76
-6.34173
-6.5222
-6.886
-7.06562
-7.07161
-6.70407
-5.86545
-4.87648
-3.71777
-2.84731
-2.25328
-1.81447
49.2517
19.2697
1.24744
0.64874
0.19731
9.51393
7.13906
-0.763829
2.3531
53.8381
-6.93699
-6.89924
-6.94114
-7.06841
-7.54769
-7.89734
-4.66341
-5.7807
-5.18414
-3.92932
-3.01101
-2.38473
-1.92103
40.4016
6.63747
0.939648
-0.114769
-0.812449
-0.100571
7.17711
-3.57993
14.7549
17.3133
-8.11185
-8.31378
-7.34421
-6.8006
-6.9488
-4.73084
-3.73169
-5.78703
-5.04865
-3.89449
-3.02681
-2.41598
-1.95657
52.0239
7.40552
0.943293
-0.535045
0.274067
6.76678
-2.3485
-5.11903
8.29888
-8.77001
-9.47761
0.206332
19.2101
20.5002
-1.56878
-6.73693
-6.1707
-5.58791
-4.74672
-3.69457
-2.91843
-2.35384
-1.92302
53.3244
6.38721
0.639002
-0.774661
1.07524
4.7217
-3.09805
-5.14429
22.0332
-9.47396
-2.99186
-8.59303
-5.48108
20.5186
8.28573
-6.01866
-5.86131
-5.3074
-4.32858
-3.3743
-2.70763
-2.21229
-1.82889
51.8704
0.456431
-0.60794
-1.29977
-1.55227
3.23824
5.26908
-2.67032
-1.37684
-9.41217
-1.77023
-3.79384
-7.26452
9.86303
23.7169
22.3925
5.57588
-4.79183
-3.69871
-2.95017
-2.41911
-2.0115
-1.68803
54.6991
-0.902038
-2.00217
-2.28937
-1.24406
0.0367594
0.814601
0.00465357
-3.69406
-6.11002
-6.37288
-5.86376
-5.69867
-4.58712
-3.68157
-2.19076
-4.45708
-3.68252
-2.98179
-2.48373
-2.09358
-1.77779
-1.51771
58.1999
-1.77986
-3.51939
-3.03256
-1.32962
0.0623019
0.597343
0.00765272
-1.59943
-3.3001
-4.1642
-4.41299
-4.19693
-3.79523
-3.54246
-3.41125
-3.13396
-2.73934
-2.36839
-2.04669
-1.77141
-1.53617
-1.33464
1.92896
34.5026
-3.82743
-3.20874
-1.36769
-0.244293
0.0963969
-0.214086
-1.02482
-1.95026
-2.60256
-2.9228
-2.9902
-2.89687
-2.74144
-2.56285
-2.35136
-2.11416
-1.8821
-1.66788
-1.47525
-1.30372
-1.15167
-0.0415571
1.71339
6.4824
-1.62333
-0.866266
-0.333473
-0.182364
-0.349704
-0.768141
-1.27927
-1.71196
-1.99357
-2.12899
-2.14294
-2.07214
-1.95033
-1.80311
-1.64593
-1.49185
-1.34664
-1.21231
-1.08922
-0.977161
0.0933548
0.0678209
0.391598
0.0109858
-0.254395
-0.213434
-0.222608
-0.348826
-0.591193
-0.891221
-1.17253
-1.38538
-1.51358
-1.55925
-1.53726
-1.47017
-1.37654
-1.27471
-1.17274
-1.07484
-0.98251
-0.89613
-0.815898
0.404831
0.386247
0.569462
0.307989
0.0574121
-0.0645588
-0.153926
-0.27177
-0.435161
-0.626463
-0.81271
-0.965435
-1.06892
-1.11915
-1.12204
-1.08999
-1.0367
-0.97394
-0.908676
-0.844625
-0.783231
-0.725002
-0.670164
0.460689
0.480987
0.530418
0.370467
0.179064
0.0424191
-0.0654377
-0.174114
-0.296314
-0.428191
-0.556142
-0.665063
-0.744263
-0.789636
-0.803427
-0.792325
-0.76476
-0.728549
-0.689104
-0.649487
-0.611208
-0.574815
-0.540414
0.41764
0.453465
0.449324
0.341257
0.211237
0.100551
0.00387781
-0.0887205
-0.182785
-0.277907
-0.368354
-0.446253
-0.505337
-0.542864
-0.559698
-0.559463
-0.547286
-0.528245
-0.50639
-0.48424
-0.463191
-0.443746
-0.425795
0.343033
0.387571
0.364471
0.286843
0.200525
0.12014
0.0445325
-0.0278823
-0.098534
-0.167229
-0.231095
-0.286022
-0.328726
-0.357685
-0.373284
-0.377597
-0.373778
-0.365223
-0.354733
-0.34459
-0.336049
-0.329529
-0.324612
0.250486
0.300257
0.275712
0.221609
0.166264
0.112372
0.059271
0.00769788
-0.0420867
-0.0894016
-0.1325
-0.16935
-0.19841
-0.218926
-0.231122
-0.236227
-0.236187
-0.233232
-0.229501
-0.226926
-0.226906
-0.22986
-0.235009
0.144885
0.200919
0.182143
0.148026
0.116382
0.0849369
0.0528212
0.021016
-0.00966942
-0.0383727
-0.0640898
-0.0859549
-0.10332
-0.115837
-0.123652
-0.127462
-0.128394
-0.127819
-0.127228
-0.128363
-0.133319
-0.14287
-0.155524
0.0246078
0.0925301
0.0827381
0.0673332
0.0552033
0.0427587
0.02946
0.016065
0.00316756
-0.00874985
-0.0193161
-0.0282709
-0.0353992
-0.0405684
-0.0438386
-0.0454919
-0.0459878
-0.0459272
-0.0461629
-0.0472597
-0.0532505
-0.0674126
-0.0860973
686.81
679.686
681.038
690.208
155.306
141.293
141.105
156.974
741.386
368.599
142.968
141.955
469.417
143.842
144.261
148.403
518.443
764.687
763.071
760.156
28.2493
27.753
27.5255
27.3374
28.0928
27.6454
27.3168
27.1372
28.4777
28.0633
27.8109
27.4263
363.403
347.314
67.976
316.457
0.897889
32.3875
149.129
1.16771
0.641817
0.838059
1.2032
1.35474
0.206978
0.31819
0.454497
0.592483
0.119681
0.213951
0.400761
0.953257
0.730794
0.727182
0.605137
0.425686
0.689464
0.282403
0.286163
0.305364
0.171311
0.172007
0.182584
0.203118
-0.0061202
0.0157418
0.0412182
0.0710382
-0.193773
-0.156473
-0.118214
-0.0787256
-0.384443
-0.335846
-0.287065
-0.238369
-0.581606
-0.521519
-0.461927
-0.403344
-0.787003
-0.712627
-0.640322
-0.570397
-0.996056
-0.904254
-0.817177
-0.734539
-1.19735
-1.08677
-0.98418
-0.888506
-1.37559
-1.24784
-1.13118
-1.02382
-1.51597
-1.37549
-1.2483
-1.13226
-1.60746
-1.46051
-1.32788
-1.20745
-1.64462
-1.49817
-1.36592
-1.24603
-1.62765
-1.48833
-1.36212
-1.24759
-1.56226
-1.43551
-1.32007
-1.21488
-1.45829
-1.34785
-1.24643
-1.15333
-1.32797
-1.23547
-1.14963
-1.07012
-1.18338
-1.10857
-1.03842
-0.972888
-1.03459
-0.975923
-0.920453
-0.868317
-0.889002
-0.844319
-0.80181
-0.76167
-0.751636
-0.718722
-0.687228
-0.657312
-0.62561
-0.60256
-0.580352
-0.559082
-0.512239
-0.497543
-0.483289
-0.469548
-0.41122
-0.403617
-0.396232
-0.389134
-0.321122
-0.319401
-0.31777
-0.3163
-0.24023
-0.243116
-0.245965
-0.248831
-0.167184
-0.173383
-0.179372
-0.185167
-0.102426
-0.110842
-0.118785
-0.126235
687.788
384.187
248.827
136.389
-6.91761
-6.2559
346.837
668.498
222.86
292.419
460.219
558.053
898.121
591.775
496.969
487.775
491.854
536.209
1184.99
197.158
493.189
284.103
4.02105
28.3001
558.115
648.188
614.106
211.86
509.407
407.432
852.127
662.559
99.0493
128.381
572.212
438.216
484.343
768.689
140.597
249.698
423.052
569.72
776.395
872.221
1008.27
396.306
432.973
598.183
964.991
830.099
478.135
50.3975
5.42734
474.062
741.33
508.853
853.292
542.188
802.292
871.694
675.529
669.553
1014.44
1231.9
984.01
687.933
1034.9
1053.52
790.891
18.1074
13.032
110.168
411.954
83.8987
459.859
270.548
602.451
389.153
560.449
668.743
340.169
1096.45
1218.09
1179.97
1087.99
601.614
478.682
789.399
18.1549
9.56873
9.98941
97.1494
84.4949
602.23
75.9182
30.0021
633.248
747.09
465.461
628.162
132.966
95.9661
113.354
9.22998
7.57473
7.33762
59.3
475.434
11.7034
12.2951
55.6805
519.695
28.175
31.5102
26.8931
27.3986
399.36
764.29
3.4039
3.15355
5.34376
6.65132
7.23138
8.12242
6.91923
6.29549
6.09439
552.099
545.542
223.88
25.0862
32.9261
31.8864
27.0572
28.8171
187.27
35.7613
2.89354
2.11164
12.4911
15.0312
16.2311
16.3832
15.6453
5.56396
5.95234
5.41027
0.64836
8.68308
9.42745
24.8031
45.7021
314.137
322.564
192.374
2.18924
2.51316
1.87284
12.2755
13.3229
7.35672
10.5455
14.1838
4.36524
5.75087
1.22099
-0.145051
0.790768
1.70419
1.50821
6.57045
1.12419
1.26177
3.90745
6.81661
6.18103
6.44931
1.59355
1.56887
1.58352
1.60871
13.4128
2.76356
3.91098
-0.13132
-1.52282
-0.652385
0.790971
0.718419
3.17594
1.0912
1.77647
5.21516
1.465
2.75383
1.4652
1.44316
1.38586
1.33928
1.34316
10.1601
1.42574
2.83322
1.30248
-1.87836
-0.992982
0.0457008
0.399657
0.370781
0.954424
1.20646
1.05722
1.33747
1.38709
1.30942
1.31109
1.29065
1.28649
1.29757
5.7766
1.27927
1.24031
2.83301
0.089414
-0.0849839
0.370978
0.548774
2.25062
1.06714
1.05192
0.963657
1.19563
1.32135
1.14045
1.17766
1.2088
1.26567
1.69455
3.21081
2.09773
1.54923
1.35261
0.9013
0.727281
0.766642
0.840826
3.87766
0.428619
0.552685
0.681195
0.803729
0.906397
0.986957
1.04733
1.10427
1.18767
1.38093
3.90052
7.81981
1.86078
1.6812
1.34448
1.10366
1.04558
1.1762
3.70736
0.347366
0.445856
0.555926
0.664928
0.763666
0.84765
0.919182
0.987348
1.07904
1.39847
1.50784
8.25845
2.14755
2.06375
1.65051
1.32173
1.36232
3.24598
3.16955
0.242
0.331441
0.43256
0.53473
0.630659
0.716317
0.792227
0.862405
0.929507
1.96311
1.77148
1.49342
9.16803
8.33157
4.30109
1.36637
1.76504
6.1797
3.93031
0.116206
0.208117
0.307737
0.407931
0.503188
0.589834
0.667001
0.735343
0.79179
1.32502
2.47306
1.05649
0.997458
5.64397
13.2698
5.83115
1.59365
5.81489
19.8078
-0.0240992
0.0770527
0.180884
0.283178
0.37987
0.467722
0.545123
0.611028
0.661748
1.0299
1.73525
1.34117
0.749309
2.8639
1.59414
5.71318
1.09878
2.74544
140.573
-0.173085
-0.0588498
0.0532409
0.160728
0.260631
0.35033
0.428125
0.492398
0.539555
0.564279
0.583238
1.24137
0.56232
3.26687
1.68611
3.6486
1.09864
7.30964
13.1519
-0.326358
-0.196349
-0.07322
0.0415407
0.145931
0.238231
0.317223
0.381551
0.429248
0.45889
0.471232
1.14198
0.434205
0.15374
1.02958
5.71281
0.621715
1.38229
7.47246
-0.48012
-0.332173
-0.196366
-0.0732298
0.0364034
0.131999
0.213145
0.279124
0.329309
0.363515
0.37978
1.07358
0.356616
-0.0347874
-0.520422
4.58126
0.154825
-0.381978
1.3293
-0.629667
-0.462686
-0.313792
-0.182124
-0.0670233
0.0322977
0.116311
0.185012
0.238442
0.277563
0.848885
0.804904
0.802776
-0.0400419
1.33559
1.59845
-0.176495
-0.0907663
3.94533
-0.769063
-0.583683
-0.42265
-0.283206
-0.163021
-0.0600589
0.026979
0.098747
0.155926
0.20037
0.234023
0.272111
1.14077
0.124264
1.42697
0.233623
0.427666
0.665607
5.62875
-0.891579
-0.690571
-0.519703
-0.374131
-0.249976
-0.144251
-0.0549028
0.0193593
0.0800297
0.130362
0.173666
0.212772
0.748595
0.374377
13.0791
9.71005
2.46668
9.71192
2.87441
-0.990757
-0.778972
-0.601741
-0.452469
-0.32627
-0.219529
-0.129693
-0.0546755
0.00775057
0.0631121
0.125009
0.153996
0.218734
2.70863
9.70663
-0.601285
-0.550118
3.02565
3.28925
-1.06156
-0.8453
-0.665893
-0.515915
-0.390073
-0.284926
-0.197418
-0.117753
-0.0656258
-0.000950705
0.0435016
0.0850614
0.0907007
4.34825
15.7805
-0.418612
-0.477461
-0.212807
0.494583
-1.10116
-0.88708
-0.709939
-0.562225
-0.439391
-0.339001
-0.160303
-0.0611849
-0.0310456
-0.126013
-0.103584
-0.0807991
-0.106184
-0.401197
15.4719
6.44923
-0.605361
4.08284
4.34095
-1.10899
-0.903304
-0.73243
-0.589584
-0.471644
-0.340465
-0.173241
-0.14727
-0.276477
-0.275479
-0.293671
-0.310582
-0.288598
-0.503651
0.592105
9.89452
-0.649213
10.2331
13.5671
-1.08686
-0.894935
-0.733627
-0.596989
-0.48354
-0.252541
-0.248226
-0.378274
-0.362034
-0.319905
-0.356922
-0.431198
-0.352582
-0.37819
-0.559796
-0.63406
-0.218638
0.873711
0.214037
-1.03904
-0.865177
-0.716114
-0.585712
-0.471956
-0.294731
-0.362615
-0.43799
-0.387454
2.67652
7.44976
0.197451
-0.389772
-0.374019
-0.2783
0.645762
0.134176
0.432726
0.601635
-0.971587
-0.819292
-0.68551
-0.562179
-0.438235
-0.321156
0.420868
1.16014
0.364723
9.23506
9.45249
9.4971
6.52357
-0.11711
1.18104
2.16324
1.36166
5.15283
3.62196
-0.891062
-0.763275
-0.649718
-0.54083
-0.415548
-0.2274
9.74321
12.279
3.63797
-0.781245
-0.642611
0.86203
9.57064
5.32371
0.561298
0.488789
0.76659
5.05485
0.0450457
-0.802965
-0.701134
-0.61342
-0.535953
-0.456567
0.371092
1.46137
8.04248
-1.12651
-0.803938
0.817092
-0.591402
-0.570406
4.69966
7.78555
7.42705
6.07884
-0.231134
-0.100123
-0.711264
-0.633567
-0.571481
-0.531751
-0.0168988
1.10486
-0.740159
-1.05696
-0.966139
-0.778186
0.902482
-0.543793
-0.514185
-0.495242
-0.481972
-0.421809
-0.318509
-0.222452
-0.0020207
-0.619578
-0.561562
-0.517506
-0.427512
1.22968
1.03246
-0.659519
-0.522122
-0.618283
-0.239414
-0.544566
-0.499814
-0.469456
-0.440941
-0.406282
-0.353009
-0.287999
-0.228893
-0.204888
-0.532032
-0.48995
-0.457796
-0.00703769
1.28604
-0.5217
-0.500319
-0.356499
-0.285869
-0.0180033
-0.493292
-0.46326
-0.434709
-0.404723
-0.369948
-0.327686
-0.283124
-0.246507
-0.227929
-0.451969
-0.424491
-0.403862
-0.334472
-0.257534
-0.367378
-0.242634
-0.28081
-0.384309
-0.478252
-0.458976
-0.43486
-0.408518
-0.380243
-0.349327
-0.316125
-0.284154
-0.25909
-0.245039
-0.380147
-0.366848
-0.359576
-0.364262
-0.444075
-0.375753
-0.49261
-0.466329
-0.456996
-0.448439
-0.432642
-0.41177
-0.388181
-0.362825
-0.336251
-0.309636
-0.285435
-0.266865
-0.255986
-0.314685
-0.313993
-0.318616
-0.33672
-0.111705
-0.572883
-0.514799
-0.456145
-0.436144
-0.424907
-0.410914
-0.392838
-0.371944
-0.349474
-0.326544
-0.304506
-0.285148
-0.270477
-0.261679
-0.252791
-0.261105
-0.274189
-0.298965
0.565203
-0.362612
-0.53538
-0.434212
-0.412395
-0.404174
-0.39304
-0.377497
-0.358818
-0.338565
-0.318181
-0.299058
-0.282616
-0.270278
-0.262969
-0.192698
-0.205999
-0.221769
-0.243116
-0.273958
0.401171
-0.0970233
-0.371049
-0.383995
-0.387114
-0.379833
-0.365998
-0.34848
-0.329381
-0.310339
-0.292747
-0.277824
-0.266671
-0.260379
-0.135528
-0.150425
-0.16603
-0.186438
-0.213837
-0.298103
-0.0714963
-0.318589
-0.369849
-0.380313
-0.373404
-0.35894
-0.341008
-0.321811
-0.302938
-0.28572
-0.271253
-0.26034
-0.254112
721.661
725.502
731.652
743.027
763.744
790.905
822.743
857.031
892.821
929.521
965.462
997.603
1017.97
1020.76
1028.03
1020.84
976.53
906.144
878.786
860.813
870.7
857.299
846.882
719.557
724.04
729.581
740.282
762.622
790.294
822.116
856.261
892.225
929.334
965.898
998.689
1019.78
1022.49
1024.64
1016.25
976.005
913.161
857.24
842.407
863.911
852.757
844.589
713.794
719.513
723.231
732.564
760.144
788.622
820.202
854.466
890.965
929.033
967.035
1001.7
1027.63
1031.26
1029.78
1017.19
981.968
913.729
846.885
849.011
854.532
845.688
839.557
705.059
711.273
708.341
715.15
756.723
786.816
817.568
851.64
888.781
928.381
968.795
1006.57
1036.42
1048.98
1042.94
1021.37
982.621
929.875
871.641
847.751
844.501
837.604
832.718
693.082
699.143
689.281
698.361
754.645
785.061
814.052
847.683
885.603
927.244
971.003
1013.16
1047.66
1064.8
1057.79
1028.48
981.245
923.727
868.2
840.543
833.955
828.538
824.257
677.755
684.856
675.36
691.211
753.495
782.163
809.189
842.398
881.227
925.338
973.369
1021.28
1061.72
1083.39
1075.63
1037.58
977.334
910.459
855.035
828.324
822.507
818.682
814.083
659.335
670.095
669.607
693.672
740.147
776.114
802.411
835.54
875.363
922.25
975.458
1030.66
1078.75
1105.86
1097.25
1048.16
969.646
889.506
834.334
811.139
810.102
808.541
801.913
639.163
655.745
668.057
693.149
722.921
766.311
793.494
826.921
867.662
917.416
976.645
1040.88
1098.79
1132.95
1123.32
1059.52
955.732
859.159
805.411
788.883
797.643
797.256
784.783
404.723
460.333
379.584
373.604
354.729
418.188
712.651
826.453
857.267
926.343
919.864
804.228
1016.98
1079.86
786.482
747.843
732.64
728.262
919.056
372.004
362.032
295.72
335.028
310.188
385.185
697.367
833.884
834.913
934.814
866.636
741.779
952.562
982.84
700.357
735.658
730.792
608.589
875.152
409.689
283
296.203
342.782
275.596
275.062
681.849
837.624
771.819
919.932
801.216
725.69
765.189
808.403
581.361
646.828
763.139
514.219
838.691
306.73
284.184
355.867
273.13
274.165
274.499
720.097
872.849
763.954
845.52
824.107
658.99
694.594
552.752
490.148
602.707
670.006
547.969
877.396
298.964
415.976
271.732
284.897
281.077
310.956
818.473
1011.88
706.543
846.015
765.937
616.098
660.403
247.059
437.896
693.511
715.394
748.729
860.239
558.636
367.244
471.407
493.996
481.108
455.519
835.002
1088.71
524.824
831.821
768.127
640.771
618.026
213.281
245.159
670.322
720.244
879.564
922.345
440.152
485.407
454.663
394.715
320.7
95.805
532.66
917.391
437.164
695.996
748.746
751.467
650.617
223.009
245.735
465.826
677.214
962.528
993.294
480.736
456.828
104.633
-1.69589
-6.73579
-5.78331
436.332
678.009
320.091
657.18
573.524
900.035
673.143
346.378
250.107
280.674
333.596
985.177
1286.67
604.384
639.48
668.842
694.697
722.26
750.207
779.551
813.387
854.773
907.817
975.743
1054.28
1128.48
1174.75
1165.39
1075.26
917.741
788.029
737.764
703.493
707.206
753.458
732.021
20.9545
139.123
262.174
395.329
644.788
720.314
752.849
784.395
822.388
875.841
959.207
1070.64
1183.33
1258.83
1246.72
1067.87
595.062
168.877
172.9
194.862
665.649
743.361
328.213
13.5851
13.1549
12.9958
12.9256
12.1205
31.556
117.591
284.876
500.748
684.529
896.376
1061.52
1232.06
1351.44
1093.68
765.251
658.368
189.273
306.848
600.158
524.2
735.992
735.345
13.0878
12.9066
12.6378
12.2015
11.7956
11.8826
12.1213
12.2891
12.5272
12.9146
169.143
1011.7
1212.49
1294.65
602.207
852.707
652.877
589.082
155.317
30.2164
30.3027
142.549
794.753
12.3704
12.2245
11.8901
11.3664
11.3335
11.6848
12.0177
12.2499
12.4196
12.7403
39.3528
1024.99
1131.31
299.861
254.095
230.888
201.414
31.5846
30.5126
29.935
29.6207
29.9787
52.2736
11.592
11.481
11.2848
11.0997
11.3195
11.7157
12.0098
12.2494
12.3849
13.3984
424.798
1061.09
204.923
153.612
507.774
463.071
36.9602
31.6995
30.2352
29.7064
29.1081
28.787
28.5942
10.8965
10.8599
10.8647
11.0271
11.4833
11.9386
12.0136
12.3922
25.1149
695.663
706.228
30.5463
2.49252
63.4783
452.444
465.207
358.605
150.333
120.354
29.3566
28.7579
28.3962
28.3975
10.1799
10.1861
10.2922
10.5974
11.2727
12.3213
19.0422
510.13
552.907
36.0732
8.25751
3.46702
1.29763
1.36984
44.1942
476.582
403.727
125.333
360.087
170.981
29.1407
31.0089
31.6531
9.39385
9.40571
9.50059
9.67159
9.95082
9.90175
84.959
133.679
3.79728
3.95282
45.8212
30.415
1.80417
1.74923
2.20826
73.0052
231.029
37.8301
100.351
409.928
387.737
264.31
359.349
8.65736
8.63913
8.61087
8.50854
8.08703
6.76909
2.80744
2.17449
2.87177
3.78079
3.98921
76.4827
2.04443
2.29066
3.15426
2.49667
3.07553
93.9302
124.065
84.6583
8.73629
1.52918
0.913401
7.92095
8.00642
7.78998
7.55834
7.04185
6.06029
4.72488
4.39665
4.23782
3.62428
62.3632
82.3032
2.36933
2.46556
2.41764
2.34089
2.00354
2.77472
110.869
129.107
81.7555
0.916529
0.684212
7.30727
7.39492
7.11465
6.87557
6.49495
6.01595
5.73518
6.2561
8.71963
96.2294
92.632
65.1326
2.55843
6.28839
6.88167
2.52491
3.13115
3.03731
2.63157
93.6763
35.3109
0.0798184
0.155777
6.78817
6.76282
6.5496
6.33204
6.03767
5.72152
5.537
5.52349
57.9971
103.699
103.717
2.47465
3.02539
43.9977
140.957
58.6941
2.18339
2.2337
2.49878
113.757
1.03102
0.185625
0.0642685
6.27398
6.19607
6.05797
5.86029
5.59824
5.26809
4.81716
3.98747
4.62537
4.40029
1.51207
2.01159
2.51427
150.557
140.53
59.2745
2.14042
2.29745
2.65715
103.683
0.411622
0.445895
0.476348
5.81077
5.74539
5.62355
5.4504
5.21815
4.90681
4.46172
3.75039
2.62954
1.82657
1.74462
1.96981
2.55768
157.603
159.057
2.52788
2.37663
2.69195
81.0139
36.6845
0.266847
0.374238
0.597059
5.39944
5.34375
5.24208
5.10167
4.91875
4.67927
4.35923
3.92787
3.39121
2.93339
2.73862
2.8624
3.20233
43.3791
172.24
60.7001
3.1003
24.4849
85.2385
0.097151
0.0899836
0.16963
0.175851
5.03509
4.98283
4.90017
4.79847
4.67856
4.53367
4.35606
4.14523
3.91899
3.72477
3.6103
3.59664
3.64526
3.65342
3.63216
13.7884
26.7747
5.03798
85.2502
-0.203742
-0.174765
-0.0820345
-0.0222881
4.70401
4.64457
4.57514
4.51441
4.46473
4.42118
4.37984
4.34085
4.30424
4.2621
4.19943
4.12559
4.07596
4.01603
3.96859
3.87861
163.789
41.22
-0.581672
-0.48346
-0.410659
-0.309581
-0.223054
4.40194
4.30375
4.2345
4.21607
4.24302
4.30342
4.38954
4.49592
4.60875
4.68676
4.66793
4.54722
4.5371
4.64256
4.67345
89.188
227.152
107.193
-0.796061
-0.676726
-0.6087
-0.521587
-0.422365
4.12972
3.908
3.82462
3.86132
3.97836
4.1475
4.35302
4.58788
4.84019
5.05537
5.10265
4.88804
4.76165
4.99695
19.3748
238.281
218.23
-1.30922
-0.975826
-0.882152
-0.840276
-0.749411
-0.628502
3.87021
3.30256
3.25249
3.39162
3.62947
3.91692
4.22863
4.56047
4.92285
5.32687
5.54287
103.207
4.51994
66.9547
242.313
204.716
-2.45138
-1.84815
-1.43066
-1.26765
-1.15463
-1.00768
-0.8459
3.29157
2.02749
2.40238
2.73315
3.15193
3.57218
3.96758
4.3035
4.58915
5.32306
217.067
222.363
221.156
233.609
28.5981
-4.31714
-3.51251
-2.7914
-2.18791
-1.80461
-1.53144
-1.28933
-1.07035
1.59879
-0.732251
1.182
1.74121
2.48485
3.04598
3.54556
3.75665
3.61232
10.246
215.584
-4.74168
-3.93344
-6.24039
-6.09519
-5.42763
-4.60454
-3.88076
-3.03163
-2.37496
-1.91926
-1.57139
-1.28857
44.263
37.9045
11.6017
4.84283
1.70135
2.18248
2.74249
3.04394
2.99753
74.4435
-4.30108
-5.89589
-6.24586
-6.6199
-6.65317
-6.16003
-5.45794
-4.74607
-3.74733
-2.8717
-2.26431
-1.82389
-1.48239
53.0273
2.14035
1.51782
1.49789
10.1345
9.87713
1.12675
1.79982
6.5981
62.9752
-6.32315
-6.39902
-6.69502
-7.05285
-7.10125
-6.9845
-6.29758
-5.41274
-4.28312
-3.23804
-2.52536
-2.01895
-1.63425
47.2316
1.42715
0.938418
0.420878
3.34254
9.00962
-1.07756
-0.688743
51.4758
-5.90025
-6.78043
-6.99028
-6.94948
-7.2778
-7.84188
-5.35457
-3.83291
-5.75249
-4.539
-3.42152
-2.67217
-2.13685
-1.73139
45.9545
1.33139
0.376366
-0.516958
-1.04274
8.29668
-3.3029
-4.15861
42.7692
-7.97022
-8.30089
-7.95229
-6.89473
-7.02395
-6.93731
-4.18778
-4.1506
-5.52058
-4.46367
-3.41741
-2.69836
-2.17079
-1.76794
40.8279
1.44655
0.180156
-1.07395
5.09348
6.35484
-4.34835
-5.81422
34.1523
-9.20655
-8.36383
18.2428
20.1042
18.1208
-6.87664
-6.47383
-5.88314
-5.2189
-4.1998
-3.27152
-2.61628
-2.1245
-1.74463
50.7862
1.23861
-0.116839
-1.28065
5.19155
2.72349
-3.70222
-4.63589
22.8648
-9.78208
-2.0433
-8.57667
19.3428
20.9224
-6.05926
-5.95141
-5.52962
-4.89198
-3.81043
-3.01309
-2.44338
-2.00893
-1.66821
40.3491
-0.0379101
-1.01308
-1.59401
-0.910875
6.04978
1.2828
-4.38309
-7.00195
-4.90398
-1.62713
-8.09633
-6.32934
24.0436
23.1469
21.677
-5.17279
-4.21693
-3.28681
-2.66536
-2.20292
-1.84091
-1.55004
2.25079
-1.53731
-2.19418
-1.85182
-0.588431
0.559166
0.523982
-1.96201
-5.26647
-6.47304
-5.83792
-5.82451
-5.08274
-4.30626
-0.823233
-4.65635
-4.08931
-3.30211
-2.71502
-2.27793
-1.92772
-1.64167
-1.40423
50.7613
-2.97654
-3.53428
-2.21179
-0.549359
0.459529
0.446003
-0.716781
-2.5203
-3.84542
-4.34081
-4.35911
-3.99065
-3.64237
-3.47195
-3.30223
-2.93731
-2.5485
-2.20123
-1.90366
-1.64919
-1.43155
-1.24459
43.9655
4.02624
-3.8371
-2.26448
-0.692667
0.011423
0.0182271
-0.578026
-1.50224
-2.32304
-2.79774
-2.98412
-2.95617
-2.82271
-2.65943
-2.46191
-2.23361
-1.99643
-1.77235
-1.56885
-1.38694
-1.22537
-1.08228
0.60428
7.21376
0.0813879
-1.27166
-0.545341
-0.216033
-0.228516
-0.535772
-1.02404
-1.51295
-1.87195
-2.07848
-2.1489
-2.11583
-2.01597
-1.8789
-1.72479
-1.568
-1.41795
-1.27807
-1.14937
-1.03182
-0.925126
-0.11058
0.363067
0.227593
-0.213381
-0.235436
-0.205916
-0.269556
-0.458143
-0.738948
-1.0383
-1.28908
-1.46028
-1.54603
-1.55543
-1.50772
-1.42492
-1.32608
-1.22339
-1.12315
-1.02795
-0.938564
-0.855231
-0.778111
0.297083
0.533523
0.468994
0.162121
-0.0133905
-0.108413
-0.207241
-0.348248
-0.529284
-0.722277
-0.894539
-1.02383
-1.10052
-1.12584
-1.1095
-1.06515
-1.00599
-0.94132
-0.876374
-0.813553
-0.753705
-0.697146
-0.644053
0.452191