/*--------------------------------*- C++ -*----------------------------------*\
| =========                 |                                                 |
| \\      /  F ield         | OpenFOAM: The Open Source CFD Toolbox           |
|  \\    /   O peration     | Version:  v1912                                 |
|   \\  /    A nd           | Website:  www.openfoam.com                      |
|    \\/     M anipulation  |                                                 |
\*---------------------------------------------------------------------------*/
FoamFile
{
    version     2.0;
    format      ascii;
    class       surfaceScalarField;
    location    "0.8";
    object      phi;
}
// * * * * * * * * * * * * * * * * * * * * * * * * * * * * * * * * * * * * * //

dimensions      [0 3 -1 0 0 0 0];
oriented        oriented;


internalField   nonuniform List<scalar> 
17936
(
-1.10572e-06
3.14801e-06
-2.04229e-06
2.69365e-06
-4.03966e-06
1.34601e-06
5.19028e-06
-6.52576e-06
1.33548e-06
8.13063e-06
-9.50454e-06
1.37391e-06
1.00356e-05
-9.85951e-06
-1.76111e-07
9.61987e-06
-9.66736e-06
4.74859e-08
9.97575e-06
-1.05312e-05
5.55493e-07
1.12916e-05
-1.21512e-05
8.59605e-07
1.30093e-05
-1.38098e-05
8.00516e-07
1.45347e-05
-1.5185e-05
6.50307e-07
1.57633e-05
-1.62764e-05
5.13117e-07
1.67489e-05
-1.71657e-05
4.16862e-07
1.73153e-05
-1.68716e-05
-4.43677e-07
1.60184e-05
-1.56683e-05
-3.5002e-07
1.6785e-05
-1.87391e-05
1.95414e-06
1.92372e-05
-1.68933e-05
-2.34388e-06
1.26882e-05
-8.03183e-06
-4.65637e-06
3.83824e-06
-1.20817e-06
-2.63007e-06
1.14498e-06
-5.40057e-06
4.2556e-06
1.24629e-05
-1.67486e-05
4.28575e-06
1.53195e-05
-1.11355e-05
-4.184e-06
6.95513e-06
-3.62519e-06
-3.32994e-06
1.19381e-06
3.68654e-07
-1.56246e-06
-5.34144e-06
7.41508e-06
-2.07364e-06
3.73952e-06
-4.98461e-06
-2.76349e-06
4.00858e-06
6.53885e-06
-8.40801e-06
-3.01293e-06
4.88209e-06
1.02349e-05
-1.14517e-05
-2.15963e-06
3.37644e-06
1.15999e-05
-1.09082e-05
6.65598e-07
-1.3573e-06
1.02003e-05
-1.00348e-05
-1.48918e-07
-1.65792e-08
1.03113e-05
-1.08557e-05
-1.4184e-06
1.9628e-06
1.1569e-05
-1.23665e-05
-1.84734e-06
2.64492e-06
1.31925e-05
-1.40055e-05
-1.61706e-06
2.43006e-06
1.47714e-05
-1.54654e-05
-1.31214e-06
2.0061e-06
1.60744e-05
-1.65992e-05
-1.12105e-06
1.64579e-06
1.70686e-05
-1.75931e-05
-9.88822e-07
1.51327e-06
1.84085e-05
-1.9735e-05
-3.79733e-07
1.70625e-06
2.13875e-05
-2.26471e-05
-1.33388e-06
2.5935e-06
2.25316e-05
-2.08269e-05
-1.05703e-06
-6.4761e-07
1.8524e-05
-1.66216e-05
5.29017e-06
-7.19262e-06
1.54717e-05
-1.50569e-05
7.34714e-06
-7.76195e-06
1.53175e-05
-1.6351e-05
2.93506e-06
-1.90155e-06
1.78415e-05
-1.80255e-05
-8.16151e-06
8.34552e-06
1.52804e-05
-1.12702e-05
-2.039e-06
-1.97122e-06
7.91136e-06
-4.92344e-06
7.87396e-06
-1.08619e-05
2.89308e-06
-1.70478e-06
5.62538e-06
-6.81368e-06
9.84371e-07
-4.99831e-07
2.56871e-06
-3.05325e-06
-9.32254e-06
1.10813e-05
-1.75878e-06
3.2198e-06
-4.57515e-06
-5.23612e-06
6.59147e-06
6.66571e-06
-9.51788e-06
-7.20876e-06
1.00609e-05
1.24417e-05
-1.4263e-05
-5.03792e-06
6.85922e-06
1.42107e-05
-1.28527e-05
2.43351e-06
-3.79145e-06
1.14234e-05
-1.07737e-05
4.29933e-07
-1.07963e-06
1.08598e-05
-1.12641e-05
-2.37245e-06
2.77678e-06
1.18363e-05
-1.2524e-05
-3.34688e-06
4.03458e-06
1.32702e-05
-1.40317e-05
-3.23193e-06
3.99346e-06
1.47618e-05
-1.54246e-05
-2.70764e-06
3.37047e-06
1.59946e-05
-1.64444e-05
-2.1131e-06
2.56293e-06
1.67426e-05
-1.68751e-05
-1.77863e-06
1.91114e-06
1.6869e-05
-1.67588e-05
-2.43893e-06
2.32868e-06
1.64686e-05
-1.57505e-05
-2.98735e-06
2.26927e-06
1.44653e-05
-1.29085e-05
2.44191e-06
-3.99866e-06
1.15951e-05
-1.08013e-05
8.49614e-06
-9.28986e-06
1.0555e-05
-1.09094e-05
7.08722e-06
-6.73283e-06
1.15578e-05
-1.15118e-05
1.01673e-06
-1.06272e-06
9.89096e-06
-6.88709e-06
-6.04814e-06
3.04427e-06
3.43609e-06
-1.06893e-06
5.4894e-06
-7.85656e-06
-3.99706e-08
2.27932e-08
1.23903e-05
-1.23732e-05
2.72596e-07
-3.54946e-07
7.20412e-06
-7.12177e-06
3.04381e-07
-1.93351e-07
3.27838e-06
-3.38941e-06
-1.27154e-05
1.4232e-05
-1.51658e-06
3.05481e-06
-4.81049e-06
-8.15034e-06
9.90602e-06
7.36608e-06
-1.03998e-05
-1.32124e-05
1.62462e-05
1.28995e-05
-1.39822e-05
-8.46324e-06
9.54592e-06
1.36757e-05
-1.26721e-05
5.11786e-06
-6.12142e-06
1.17986e-05
-1.13351e-05
1.80894e-06
-2.27239e-06
1.14565e-05
-1.19652e-05
-3.22034e-06
3.72907e-06
1.25786e-05
-1.32544e-05
-4.72198e-06
5.39775e-06
1.39407e-05
-1.46047e-05
-4.70532e-06
5.36938e-06
1.52263e-05
-1.57904e-05
-3.97988e-06
4.54397e-06
1.6284e-05
-1.66927e-05
-2.99452e-06
3.40316e-06
1.6994e-05
-1.71368e-05
-2.03938e-06
2.18219e-06
1.70054e-05
-1.64254e-05
-1.77805e-06
1.19812e-06
1.52954e-05
-1.37874e-05
-8.29178e-07
-6.7884e-07
1.23279e-05
-1.13127e-05
5.20576e-06
-6.22091e-06
1.07002e-05
-1.00798e-05
9.82085e-06
-1.04413e-05
9.06524e-06
-7.57621e-06
7.42709e-06
-8.91612e-06
5.78477e-06
-3.79865e-06
2.04484e-06
-4.03096e-06
1.45507e-06
1.09676e-06
1.37107e-07
-2.68894e-06
-2.95842e-06
3.28684e-06
8.9103e-06
-9.23872e-06
-2.42888e-06
1.32137e-06
1.1543e-05
-1.04355e-05
-5.42762e-07
1.41817e-07
6.80771e-06
-6.40676e-06
8.70329e-08
-9.96926e-08
3.44085e-06
-3.42819e-06
-1.56035e-05
1.67576e-05
-1.15413e-06
2.98863e-06
-4.82267e-06
-1.17683e-05
1.36024e-05
6.84192e-06
-8.64266e-06
-1.87757e-05
2.05764e-05
9.64417e-06
-9.71056e-06
-1.00481e-05
1.01145e-05
9.32069e-06
-9.0605e-06
6.71657e-06
-6.97676e-06
9.93083e-06
-1.10159e-05
2.08221e-06
-9.97153e-07
1.17803e-05
-1.2528e-05
-4.33796e-06
5.08563e-06
1.3228e-05
-1.38735e-05
-6.05646e-06
6.70194e-06
1.44889e-05
-1.50677e-05
-5.98934e-06
6.56819e-06
1.56101e-05
-1.61124e-05
-5.07357e-06
5.57588e-06
1.65659e-05
-1.69528e-05
-3.79527e-06
4.18224e-06
1.72438e-05
-1.73906e-05
-2.32413e-06
2.47098e-06
1.73159e-05
-1.69203e-05
-7.19096e-07
3.23469e-07
1.61457e-05
-1.50673e-05
1.9518e-06
-3.0302e-06
1.38815e-05
-1.27514e-05
7.25803e-06
-8.38807e-06
1.16605e-05
-1.04586e-05
1.13507e-05
-1.25526e-05
8.99921e-06
-7.20273e-06
1.06271e-05
-1.24236e-05
5.04524e-06
-2.58833e-06
6.61549e-06
-9.0724e-06
8.63485e-08
1.99454e-06
5.00803e-06
-7.08892e-06
-3.06908e-06
3.04608e-06
9.10187e-06
-9.07887e-06
-2.40475e-06
1.70893e-06
9.46163e-06
-8.76581e-06
-1.16822e-06
7.80922e-07
6.01134e-06
-5.62404e-06
-4.34371e-07
2.19837e-07
3.34463e-06
-3.1301e-06
-1.75665e-05
1.78433e-05
-2.7684e-07
2.40386e-06
-3.86052e-06
-1.52845e-05
1.67412e-05
4.76056e-06
-5.01775e-06
-2.15846e-05
2.18418e-05
4.78326e-06
-4.4561e-06
-9.9146e-06
9.58745e-06
3.98689e-06
-4.64844e-06
6.86091e-06
-6.19936e-06
7.41578e-06
-1.02262e-05
-1.02838e-06
3.83876e-06
1.1951e-05
-1.30107e-05
-5.99688e-06
7.05655e-06
1.37992e-05
-1.44255e-05
-7.33871e-06
7.96499e-06
1.49731e-05
-1.54789e-05
-7.10883e-06
7.61462e-06
1.59613e-05
-1.64284e-05
-6.05689e-06
6.52398e-06
1.68767e-05
-1.72883e-05
-4.57566e-06
4.98732e-06
1.76288e-05
-1.78451e-05
-2.64291e-06
2.85919e-06
1.78673e-05
-1.7621e-05
1.31457e-09
-2.47685e-07
1.7057e-05
-1.61887e-05
3.98983e-06
-4.85808e-06
1.50859e-05
-1.38094e-05
9.59807e-06
-1.08746e-05
1.23557e-05
-1.06757e-05
1.4006e-05
-1.5686e-05
8.74e-06
-6.58092e-06
1.43842e-05
-1.65433e-05
4.29195e-06
-2.01742e-06
1.13764e-05
-1.36509e-05
-4.73203e-08
1.68395e-06
8.88646e-06
-1.05231e-05
-2.65925e-06
2.93605e-06
9.26828e-06
-9.54508e-06
-2.71972e-06
2.29218e-06
8.25787e-06
-7.83033e-06
-1.83525e-06
1.42278e-06
5.22738e-06
-4.81491e-06
-1.02826e-06
5.27539e-07
2.76642e-06
-2.2657e-06
-1.73441e-05
1.59956e-05
1.34852e-06
7.8716e-07
-1.98148e-06
-1.79986e-05
1.91929e-05
2.04284e-06
-1.24413e-06
-2.14794e-05
2.06807e-05
3.47603e-07
3.16129e-07
-9.16321e-06
8.49948e-06
-2.94732e-07
-2.6945e-06
4.61813e-06
-1.6289e-06
7.24667e-06
-1.05168e-05
-7.17458e-06
1.04447e-05
1.24161e-05
-1.35209e-05
-8.18985e-06
9.29472e-06
1.42916e-05
-1.48675e-05
-8.5726e-06
9.14855e-06
1.53478e-05
-1.57968e-05
-8.09e-06
8.53901e-06
1.6246e-05
-1.67122e-05
-6.98609e-06
7.45232e-06
1.7197e-05
-1.76835e-05
-5.42947e-06
5.91601e-06
1.8134e-05
-1.84895e-05
-3.13635e-06
3.49185e-06
1.86763e-05
-1.86179e-05
4.05659e-07
-4.64078e-07
1.82515e-05
-1.75425e-05
5.64453e-06
-6.35352e-06
1.64834e-05
-1.50682e-05
1.2217e-05
-1.36323e-05
1.32818e-05
-1.11269e-05
1.75939e-05
-1.97488e-05
8.66831e-06
-6.05039e-06
1.89192e-05
-2.15371e-05
3.47895e-06
-1.16796e-06
1.59274e-05
-1.82384e-05
-7.19694e-07
2.14024e-06
1.2041e-05
-1.34615e-05
-3.03884e-06
3.43535e-06
9.86769e-06
-1.02642e-05
-3.44068e-06
3.16726e-06
7.46272e-06
-7.1893e-06
-2.71838e-06
2.17954e-06
4.36482e-06
-3.82599e-06
-1.59465e-06
8.87808e-07
1.65984e-06
-9.53003e-07
-1.40074e-05
1.11945e-05
2.81296e-06
-1.73226e-06
6.245e-07
-2.03281e-05
2.14358e-05
-3.62043e-07
1.20152e-06
-1.97312e-05
1.88917e-05
-2.29756e-06
3.00068e-06
-7.79988e-06
7.09676e-06
5.83403e-07
-7.03651e-06
-3.29455e-06
9.74766e-06
1.03908e-05
-1.21322e-05
-1.29831e-05
1.47244e-05
1.33028e-05
-1.40843e-05
-1.02756e-05
1.10571e-05
1.46753e-05
-1.51429e-05
-9.67897e-06
1.01466e-05
1.55541e-05
-1.59632e-05
-8.96524e-06
9.37431e-06
1.64047e-05
-1.69e-05
-7.92929e-06
8.42466e-06
1.74585e-05
-1.80692e-05
-6.45774e-06
7.06839e-06
1.86927e-05
-1.92607e-05
-3.94431e-06
4.51235e-06
1.96858e-05
-1.98732e-05
4.0627e-07
-2.18891e-07
1.97323e-05
-1.91703e-05
6.98626e-06
-7.54825e-06
1.81181e-05
-1.65307e-05
1.51372e-05
-1.67247e-05
1.43978e-05
-1.17308e-05
2.21575e-05
-2.48245e-05
8.58435e-06
-5.15313e-06
2.44577e-05
-2.78889e-05
1.82137e-06
9.47936e-07
2.06973e-05
-2.34667e-05
-3.07334e-06
4.64136e-06
1.49133e-05
-1.64813e-05
-5.76641e-06
6.51181e-06
1.08199e-05
-1.15653e-05
-6.86498e-06
6.81436e-06
7.05783e-06
-7.00721e-06
-6.39723e-06
5.72875e-06
3.17669e-06
-2.5082e-06
-4.77598e-06
3.16492e-06
-1.79829e-07
1.79089e-06
9.97139e-06
-1.64462e-05
6.47477e-06
-6.7383e-06
-2.6213e-06
9.35961e-06
1.82969e-05
-3.0894e-05
1.25972e-05
3.65319e-05
-3.88406e-05
2.30868e-06
4e-05
-3.9751e-05
-2.49006e-07
3.79513e-05
-3.53837e-05
-2.56755e-06
3.18271e-05
-2.55414e-05
-6.2857e-06
1.70585e-05
-1.33208e-05
-3.73776e-06
9.95415e-06
-5.7011e-06
-4.25305e-06
1.36111e-06
-4.09593e-07
-9.51519e-07
1.72424e-06
-2.76673e-06
1.04248e-06
1.37131e-05
-3.18652e-05
1.81521e-05
3.82397e-05
-3.14384e-05
-6.80134e-06
1.42648e-05
3.71668e-06
-1.79815e-05
-1.15941e-05
1.016e-05
1.43416e-06
-6.78421e-06
2.05818e-06
4.72604e-06
-3.64037e-06
1.08503e-05
-7.20997e-06
-8.65969e-06
-4.45945e-06
1.31191e-05
1.90927e-05
-1.74167e-05
-1.67597e-06
1.53811e-05
-5.87085e-06
-9.51026e-06
9.23457e-06
-2.44417e-05
-2.6067e-05
4.12742e-05
3.5015e-05
-3.6521e-05
-1.84246e-05
1.99306e-05
3.30607e-05
-2.40361e-05
-4.42284e-07
-8.58227e-06
1.92128e-05
-1.95007e-05
8.17646e-07
-5.29659e-07
2.07397e-05
-2.11997e-05
3.97811e-06
-3.51808e-06
1.99884e-05
-1.75429e-05
1.15934e-05
-1.40389e-05
8.50544e-06
-3.72185e-07
9.36705e-06
-1.75003e-05
-5.79174e-06
1.00418e-05
9.67867e-06
-1.39287e-05
-1.01557e-05
5.67204e-06
-7.66447e-07
5.25008e-06
3.80205e-06
-2.13925e-05
-1.35681e-05
3.11586e-05
3.36701e-05
-2.7849e-05
-2.79633e-05
2.21421e-05
2.20378e-05
-1.82172e-05
1.68316e-05
-2.06521e-05
-1.32725e-06
2.21674e-05
4.42563e-05
-6.50965e-05
-4.05186e-05
5.03636e-05
-8.92268e-06
-9.22294e-07
-3.85367e-05
1.83377e-05
-1.23065e-05
3.25055e-05
-5.94409e-06
-4.24815e-07
1.09251e-05
-4.55616e-06
8.59492e-06
-2.16908e-05
-3.01408e-05
4.32367e-05
2.73501e-05
-1.54662e-05
8.01192e-06
-1.98958e-05
-1.09708e-05
2.7301e-05
-1.63301e-05
2.61013e-05
-2.36704e-05
-4.93963e-05
4.69654e-05
6.92349e-06
1.02823e-05
-6.60118e-06
-1.06046e-05
-1.88642e-05
2.08296e-05
2.90088e-05
-3.09741e-05
-2.4662e-05
3.69711e-05
1.03812e-05
-2.26904e-05
-2.12243e-05
2.38114e-06
-4.03652e-05
5.92084e-05
1.0839e-05
-2.89874e-06
1.69511e-05
-2.48913e-05
1.89185e-06
2.50339e-06
2.45625e-05
-2.89577e-05
-9.1243e-06
1.02127e-05
1.78543e-05
-1.89427e-05
-1.35891e-06
-1.26673e-05
-1.32944e-05
2.73206e-05
2.63385e-05
-2.79142e-05
-4.53249e-05
4.69006e-05
1.32942e-05
-7.73184e-06
-1.20741e-05
6.51175e-06
1.63663e-05
-4.88992e-06
2.49639e-05
-3.64404e-05
-1.83328e-05
3.18765e-05
8.36404e-05
-9.71841e-05
-3.91448e-05
4.21264e-05
8.95735e-06
-1.1939e-05
-4.22017e-05
3.30713e-05
-4.90478e-05
5.81783e-05
-1.52556e-05
-1.08069e-06
-8.82695e-06
2.51633e-05
9.72898e-06
-1.17096e-05
-5.0868e-05
5.28487e-05
5.83768e-06
2.4584e-06
3.10241e-05
-3.93202e-05
-2.94666e-05
2.50372e-05
4.42936e-06
2.15691e-06
5.1123e-06
-3.39153e-05
2.6646e-05
-1.81152e-05
1.65108e-05
1.81472e-05
-1.65428e-05
-1.42089e-05
6.99561e-06
2.86469e-05
-2.14336e-05
7.8271e-06
-8.79178e-06
3.29069e-05
-3.19422e-05
-1.40394e-05
2.89717e-05
-6.87411e-05
5.38088e-05
-2.22662e-05
1.27936e-05
3.04216e-05
-2.0949e-05
-7.01787e-06
3.62866e-06
2.97479e-05
-2.63587e-05
1.66266e-06
-1.9124e-05
1.12459e-05
6.21538e-06
3.87773e-05
-4.5177e-05
-4.19419e-05
4.83416e-05
3.1908e-05
-8.29281e-06
-3.18519e-05
8.23676e-06
8.6752e-07
-9.6339e-06
-9.75522e-06
1.85216e-05
1.52078e-06
2.08686e-05
5.29656e-05
-7.5355e-05
-2.95942e-05
3.2069e-05
0.000104276
-0.000106751
-3.08007e-05
2.98593e-05
1.32882e-05
-1.23468e-05
-2.78224e-05
2.6214e-05
-6.27906e-05
6.4399e-05
-2.14503e-05
1.12137e-05
-3.97191e-05
4.99556e-05
-6.23542e-06
8.93529e-06
-5.21308e-05
4.9431e-05
-1.23358e-05
9.83317e-06
4.23486e-05
-3.9846e-05
-2.05176e-05
1.63887e-05
4.12886e-06
-1.04039e-05
1.44077e-05
-1.75685e-05
1.35648e-05
-1.43196e-05
1.49291e-05
1.42023e-05
-1.48118e-05
-1.3899e-05
2.03963e-05
1.3849e-05
-2.03463e-05
-2.61374e-05
1.81766e-05
1.45248e-05
-6.56403e-06
-1.6634e-05
2.75056e-05
-2.64003e-05
1.55288e-05
-3.67341e-05
2.62038e-05
1.25611e-05
-2.0308e-06
-1.00583e-05
-4.86565e-06
1.74299e-05
-2.50591e-06
2.90991e-05
-5.56275e-05
-3.09879e-05
5.75163e-05
6.05449e-05
-4.19798e-05
-4.20428e-05
2.34776e-05
1.73536e-05
-1.28223e-06
1.21129e-05
-2.81842e-05
-3.74383e-06
4.04623e-06
-1.87794e-05
1.8477e-05
-1.80295e-05
3.3246e-05
9.26122e-05
-0.000107829
-3.21738e-05
3.37951e-05
0.000107802
-0.000109423
-2.61265e-05
2.06932e-05
9.2e-06
-3.76672e-06
-2.28018e-05
2.62074e-05
-6.35477e-05
6.01421e-05
-3.00943e-05
2.94971e-05
-5.50823e-05
5.56795e-05
-2.5328e-05
2.3804e-05
-4.83417e-05
4.98657e-05
-1.86655e-05
7.18583e-06
3.25543e-05
-2.10747e-05
-1.15743e-05
7.9884e-06
3.58586e-06
-8.82994e-06
1.15975e-05
-1.11235e-05
8.35592e-06
-1.85267e-05
2.82664e-05
1.87753e-05
-2.8515e-05
-3.47733e-05
3.7623e-05
2.49102e-05
-2.776e-05
-3.87106e-05
3.98723e-05
7.9728e-06
-9.13444e-06
-4.18097e-05
4.52276e-05
-1.09344e-05
7.51647e-06
-4.53733e-05
3.35368e-05
-1.0276e-05
2.21126e-05
-1.12694e-05
-1.22103e-05
-1.72716e-05
4.07514e-05
3.85114e-05
-5.36838e-05
-7.90987e-05
9.42712e-05
4.86023e-05
-3.35701e-05
-4.92185e-06
-1.01104e-05
1.91579e-05
-1.19328e-05
4.28849e-05
-5.01101e-05
1.11115e-07
1.12646e-05
-1.34735e-05
2.09781e-06
-2.00492e-05
2.36758e-05
0.000115597
-0.000119223
-1.76877e-05
6.32047e-06
0.000105978
-9.46107e-05
9.39045e-07
-1.54255e-06
1.96878e-06
-1.36528e-06
-5.62184e-06
1.82865e-05
-5.4786e-05
4.21214e-05
-2.65116e-05
3.15421e-05
-5.30417e-05
4.80112e-05
-3.34992e-05
3.2165e-05
-5.20916e-05
5.34259e-05
-2.38676e-05
7.82219e-06
6.43629e-06
9.60911e-06
-8.56778e-06
1.55708e-05
-7.00304e-06
-5.73599e-06
2.13155e-05
-1.101e-06
-1.44785e-05
-3.4736e-05
4.00177e-05
3.8221e-05
-4.35028e-05
-4.02428e-05
3.88669e-05
2.86987e-05
-2.73227e-05
-3.80061e-05
3.83284e-05
9.46674e-06
-9.7891e-06
-3.83621e-05
4.08834e-05
-4.50578e-06
1.98448e-06
-3.84578e-05
2.01577e-05
-3.58809e-05
5.4181e-05
-2.38631e-06
-1.81987e-05
-6.46955e-05
8.52805e-05
3.78038e-05
-4.96143e-05
-0.000107275
0.000119086
4.55243e-05
-3.22099e-05
2.39181e-05
-3.72324e-05
2.02869e-05
-1.98755e-05
5.19834e-05
-5.23948e-05
2.05285e-05
-6.69191e-06
1.20028e-05
-2.58393e-05
-1.06084e-05
5.0713e-06
0.000119707
-0.00011417
1.53499e-05
-3.4279e-05
7.73071e-05
-5.83781e-05
3.56428e-05
-2.68773e-05
5.80995e-06
-1.45755e-05
1.35192e-05
3.05868e-06
-2.51299e-05
8.55196e-06
-1.58682e-05
2.45157e-05
-4.10166e-05
3.23692e-05
-2.9376e-05
3.0116e-05
-5.37928e-05
5.30528e-05
-2.49287e-05
1.14725e-05
-2.43089e-05
3.77652e-05
-1.2222e-05
-8.60654e-06
2.08285e-05
-2.49825e-05
3.05761e-05
3.41553e-05
-3.9749e-05
-2.59867e-05
1.76603e-05
4.0958e-05
-3.26316e-05
-1.10148e-05
1.13089e-05
2.36356e-05
-2.39297e-05
-1.46844e-05
1.73985e-05
9.93978e-06
-1.26538e-05
-1.79477e-05
4.87861e-06
-3.19946e-07
1.3389e-05
1.24231e-05
-1.39908e-05
-7.17875e-05
7.33552e-05
1.482e-05
-2.66483e-05
-0.000100543
0.000112372
3.77842e-05
-4.02198e-05
-0.000126083
0.000128519
3.27076e-05
-2.63607e-05
4.73938e-05
-5.37407e-05
2.47081e-05
-2.40176e-05
5.34554e-05
-5.41459e-05
1.62039e-05
-1.36492e-06
3.96734e-05
-5.45124e-05
-6.20845e-06
-7.19771e-06
0.000103054
-8.96474e-05
2.7525e-05
-3.99829e-05
4.34891e-05
-3.10312e-05
5.14591e-05
-6.81077e-05
1.49088e-05
1.73973e-06
7.56857e-05
-6.68749e-05
6.54e-06
-1.53509e-05
4.26304e-05
-1.19424e-05
-1.60175e-05
-1.46705e-05
-6.14586e-06
1.18192e-05
-5.02874e-05
4.4614e-05
-2.41053e-06
-3.8899e-06
-4.94145e-05
5.57149e-05
-8.40891e-06
1.04943e-05
-2.08538e-06
-4.58058e-06
5.05978e-06
-2.20268e-05
2.15476e-05
-4.25059e-06
2.36143e-06
-1.81759e-05
2.0065e-05
2.28169e-06
-1.17132e-05
-9.25082e-06
1.86823e-05
2.17818e-05
-2.64467e-05
-1.51732e-05
1.98381e-05
2.7811e-05
-2.87102e-05
-1.58072e-05
1.67063e-05
2.98405e-05
-3.09645e-05
-1.16441e-05
1.27681e-05
3.18804e-05
-3.27062e-05
-1.05125e-05
1.13383e-05
3.35396e-05
-3.4451e-05
-9.75185e-06
1.06632e-05
3.54979e-05
-3.67338e-05
-8.93173e-06
1.01677e-05
3.82115e-05
-3.99433e-05
-7.73936e-06
9.47121e-06
4.18477e-05
-4.37397e-05
-5.20038e-06
7.09238e-06
4.53853e-05
-4.65475e-05
-1.13253e-07
1.27551e-06
4.70263e-05
-4.65145e-05
8.02669e-06
-8.53847e-06
4.47346e-05
-4.12663e-05
1.83319e-05
-2.18002e-05
3.56186e-05
-2.76342e-05
2.78649e-05
-3.58493e-05
1.79804e-05
-8.10375e-06
3.20376e-05
-4.19143e-05
-2.22066e-07
6.19654e-06
2.65282e-05
-3.25027e-05
-9.97291e-06
1.24409e-05
1.81368e-05
-2.06047e-05
-1.36044e-05
1.31867e-05
1.23771e-05
-1.19594e-05
-1.14769e-05
9.49404e-06
6.78298e-06
-4.8001e-06
-8.01077e-06
9.34475e-06
1.917e-06
-3.25098e-06
-1.30483e-05
1.87031e-05
-3.61927e-06
-2.03553e-06
-2.45716e-05
5.67423e-05
-3.21707e-05
2.61225e-05
-3.09371e-05
-2.75739e-05
3.23885e-05
3.6749e-05
-4.11692e-05
-2.50199e-05
2.94401e-05
4.37189e-05
-4.42942e-05
-2.25051e-05
2.30803e-05
4.34738e-05
-4.07856e-05
-1.85597e-05
1.58716e-05
3.73057e-05
-3.45634e-05
-1.59432e-05
1.32009e-05
3.27796e-05
-3.13969e-05
-1.33747e-05
1.1992e-05
3.03639e-05
-2.98194e-05
-1.20401e-05
1.14957e-05
2.98008e-05
-3.02873e-05
-1.16747e-05
1.21612e-05
3.13033e-05
-3.29802e-05
-1.18312e-05
1.35082e-05
3.5504e-05
-3.89599e-05
-1.21207e-05
1.55766e-05
4.31969e-05
-4.78597e-05
-1.01043e-05
1.47671e-05
5.25462e-05
-5.68159e-05
-3.61372e-06
7.88346e-06
6.00732e-05
-6.15949e-05
8.1481e-06
-6.62641e-06
6.05835e-05
-5.73088e-05
2.58351e-05
-2.91098e-05
5.34661e-05
-5.00824e-05
4.42352e-05
-4.76189e-05
4.68081e-05
-4.38567e-05
4.9786e-05
-5.27374e-05
4.38846e-05
-5.20297e-05
3.50043e-05
-2.68593e-05
6.87164e-05
-9.0587e-05
1.76273e-05
4.24326e-06
0.000112217
-0.000126591
5.67602e-07
1.38061e-05
0.000126792
-0.000118155
-2.30786e-07
-8.40643e-06
0.000104841
-9.26421e-05
1.1646e-05
-2.3845e-05
8.31509e-05
-7.73331e-05
1.46681e-05
-2.0486e-05
-8.36194e-05
0.000107991
-2.43716e-05
4.37816e-05
-5.55915e-05
-4.36538e-05
5.54637e-05
6.42773e-05
-7.05602e-05
-2.69676e-05
3.32505e-05
7.99009e-05
-9.46431e-05
-2.28674e-05
3.76096e-05
0.000107482
-0.000109249
-1.38833e-05
1.565e-05
0.000100107
-8.66283e-05
-9.90904e-06
-3.56964e-06
7.40285e-05
-6.50408e-05
-8.01617e-06
-9.71504e-07
5.85833e-05
-5.37377e-05
-8.61987e-06
3.77424e-06
4.98107e-05
-4.6254e-05
-1.08322e-05
7.27548e-06
4.27998e-05
-3.98334e-05
-1.36447e-05
1.06782e-05
3.83565e-05
-3.93415e-05
-1.90015e-05
1.99865e-05
4.28497e-05
-4.82321e-05
-2.1142e-05
2.65244e-05
5.50534e-05
-6.2596e-05
-1.4311e-05
2.18537e-05
6.99891e-05
-7.76147e-05
3.69091e-06
3.93469e-06
8.87751e-05
-0.000104121
2.61394e-05
-1.07934e-05
0.000115351
-0.000114267
4.52772e-05
-4.63617e-05
0.000107832
-0.000102728
5.40509e-05
-5.91542e-05
0.00010375
-0.000108779
1.95116e-05
-1.44825e-05
0.000112904
-0.000114022
-2.31226e-05
2.42411e-05
0.00011479
-0.000117153
-1.25716e-05
1.49342e-05
0.000122577
-0.000130309
9.54389e-06
-1.8125e-06
0.00013584
-0.000135644
2.87916e-05
-2.89874e-05
0.000132895
-0.000129961
2.39927e-05
-2.69267e-05
-0.000130559
0.000150053
-1.94931e-05
4.5118e-05
-6.70107e-05
-7.21698e-05
9.40626e-05
9.07567e-05
-0.000117289
-5.2237e-05
7.87689e-05
0.000143948
-0.000166452
-6.12342e-05
8.37386e-05
0.000182463
-0.000192432
-3.58112e-05
4.57807e-05
0.000196194
-0.000196019
4.52296e-06
-4.6977e-06
0.000192127
-0.000188208
1.83217e-05
-2.22414e-05
0.000183403
-0.000177108
1.68267e-05
-2.31218e-05
0.00017028
-0.000162615
1.05083e-05
-1.81732e-05
0.000154215
-0.000144865
-1.09936e-07
-9.24012e-06
0.000134686
-0.000126173
-1.97274e-05
1.12141e-05
0.000114365
-0.000104673
-2.92678e-05
1.95758e-05
0.000100659
-0.000104118
-2.81104e-05
3.15698e-05
0.000116303
-0.000135899
-1.93677e-05
3.89634e-05
0.000156638
-0.000169845
-9.15343e-06
2.23605e-05
0.000171585
-0.000166399
5.14157e-05
-5.6601e-05
0.000157926
-0.000144871
7.10807e-05
-8.4136e-05
0.000127783
-0.000116337
1.26735e-05
-2.41192e-05
0.000113927
-0.00010967
-2.17748e-05
1.75172e-05
9.25474e-05
-6.43016e-05
-1.11848e-05
-1.7061e-05
5.27752e-05
-6.32405e-05
-4.8747e-06
1.534e-05
8.91053e-05
-0.000119668
2.03937e-05
1.01692e-05
0.000132653
-0.000135106
2.68774e-05
-2.4425e-05
-0.000165205
0.00017605
-1.08455e-05
3.20351e-05
-4.98227e-05
-0.000116217
0.000134005
6.90768e-05
-8.78074e-05
-0.000103943
0.000122673
0.000102337
-0.000110734
-9.77627e-05
0.00010616
0.000114077
-0.000115347
-4.35668e-05
4.48367e-05
0.00011665
-0.000116959
8.90433e-06
-8.59591e-06
0.000116103
-0.000114589
2.36646e-05
-2.51783e-05
0.000113601
-0.000113829
2.22112e-05
-2.1983e-05
0.000115164
-0.00011694
1.59573e-05
-1.41815e-05
0.000118939
-0.000122268
4.7315e-06
-1.40306e-06
0.000127398
-0.000127069
-3.31823e-06
2.98927e-06
0.00013186
-0.000137261
-1.45285e-05
1.99294e-05
0.000144579
-0.000156193
-3.85298e-05
5.01442e-05
0.000171242
-0.000185978
-5.557e-05
7.03064e-05
0.000187258
-0.000166072
-2.09979e-05
-1.88281e-07
0.000142029
-0.000133046
6.10048e-05
-6.99873e-05
0.000139276
-0.000153638
8.41326e-05
-6.97703e-05
0.000157114
-0.000139738
4.31252e-05
-6.05015e-05
0.000113866
-9.45943e-05
-3.69675e-06
-1.55745e-05
9.33979e-05
-0.000100268
2.57914e-05
-1.89216e-05
9.86683e-05
-8.52329e-05
-9.37268e-06
-4.06274e-06
7.12857e-05
-7.09542e-05
-3.30802e-05
3.27487e-05
9.10798e-05
-0.000120736
1.62033e-05
1.3453e-05
-0.000183759
0.000189951
-6.1919e-06
1.55564e-05
-2.24398e-05
-0.000145724
0.000152607
2.7959e-05
-3.19877e-05
-0.000133606
0.000137635
3.50918e-05
-3.87509e-05
-0.000111661
0.00011532
4.49575e-05
-5.46686e-05
-5.07589e-05
6.047e-05
6.63963e-05
-7.65722e-05
1.89168e-06
8.28421e-06
8.49708e-05
-9.10972e-05
2.32025e-05
-1.70761e-05
9.58985e-05
-0.000100906
2.00105e-05
-1.50031e-05
0.000106212
-0.000110069
9.16595e-06
-5.30865e-06
0.000110369
-0.000112328
-1.17266e-07
2.07615e-06
0.000122307
-0.000135722
-1.14051e-05
2.48193e-05
0.000153768
-0.000171332
-3.14502e-05
4.90142e-05
0.000190295
-0.000212776
-6.66773e-05
8.91586e-05
0.000233565
-0.000228319
-8.33851e-05
7.81391e-05
0.000190308
-0.000163832
3.21776e-05
-5.8654e-05
0.000156471
-0.000154904
7.43954e-05
-7.59631e-05
0.000152975
-0.000147454
6.92828e-05
-7.48039e-05
0.000144311
-0.000149941
6.51635e-05
-5.95331e-05
0.00014742
-0.000136983
3.24181e-05
-4.28554e-05
0.000129662
-0.000127994
1.624e-05
-1.79076e-05
0.000123072
-0.000111444
1.75467e-05
-2.91749e-05
9.77055e-05
-8.86573e-05
-2.5599e-05
1.65509e-05
9.00817e-05
-0.000110247
-5.03341e-05
7.04996e-05
-0.000195836
0.000201874
-6.03824e-06
1.1822e-05
-1.64125e-05
-0.000157232
0.000161822
1.76785e-05
-1.57157e-05
-0.000137197
0.000135234
1.36272e-05
-1.50503e-05
-0.000117494
0.000118917
2.22581e-05
-3.53423e-05
-7.22411e-05
8.53252e-05
5.23338e-05
-6.90849e-05
-2.25962e-05
3.93472e-05
8.03054e-05
-8.57917e-05
8.53397e-06
-3.04762e-06
9.02297e-05
-9.26116e-05
9.94459e-06
-7.56265e-06
0.000102369
-0.000126728
1.78901e-06
2.25701e-05
0.000155751
-0.00018193
-1.97311e-05
4.59098e-05
0.000199933
-0.000211111
-4.40295e-05
5.52071e-05
0.000217904
-0.000227424
-6.4896e-05
7.44153e-05
0.000239344
-0.000238014
-0.00010725
0.000105919
0.000215479
-0.0001819
-5.13454e-05
1.7766e-05
0.000160607
-0.00015541
7.22771e-05
-7.74746e-05
0.000156187
-0.000158306
7.46883e-05
-7.25693e-05
0.000162956
-0.000170119
6.92662e-05
-6.21035e-05
0.000176401
-0.000180207
5.24659e-05
-4.86598e-05
0.000182514
-0.00018307
4.82347e-05
-4.76788e-05
0.000180272
-0.000171116
2.77993e-05
-3.69559e-05
0.000170034
-0.000170949
3.71421e-05
-3.6227e-05
0.000167107
-0.000156904
-5.07787e-06
-5.12553e-06
0.000139989
-0.000116254
-6.60973e-05
4.23631e-05
-0.000207141
0.000209131
-1.98922e-06
1.32275e-05
-1.89044e-05
-0.00016717
0.000172847
2.17542e-05
-2.21059e-05
-0.00013397
0.000134322
2.29748e-05
-2.68808e-05
-0.000120972
0.000124878
3.64845e-05
-5.3867e-05
-9.99112e-05
0.000117294
8.02569e-05
-0.000112755
-5.85722e-05
9.107e-05
0.000143308
-0.000174535
-4.07857e-06
3.53055e-05
0.000203694
-0.000227564
-2.24514e-05
4.63215e-05
0.000240741
-0.000246741
-4.63339e-05
5.23335e-05
0.000246226
-0.000238761
-5.38639e-05
4.63994e-05
0.000226733
-0.000212587
-5.16994e-05
3.75539e-05
0.000192975
-0.000171555
-7.51123e-05
5.36926e-05
0.000157673
-0.000146165
-8.47927e-05
7.32847e-05
0.000135143
-0.000129313
4.56913e-06
-1.03995e-05
0.000135717
-0.000141958
7.26375e-05
-6.63964e-05
0.000148016
-0.000150635
7.04945e-05
-6.78758e-05
0.000152645
-0.00015719
5.52229e-05
-5.06781e-05
0.000166049
-0.000177024
4.35514e-05
-3.25765e-05
0.000180309
-0.000179039
4.76784e-05
-4.89481e-05
0.000176079
-0.000172543
3.83665e-05
-4.19022e-05
0.000170701
-0.000169275
2.45976e-05
-2.60243e-05
0.000175449
-0.000177757
3.01e-06
-7.02405e-07
0.000161612
-0.000135848
-6.59888e-06
-1.9165e-05
-0.000204326
0.000193123
1.12027e-05
7.44838e-06
-1.41768e-05
-0.000178481
0.00018521
1.70078e-05
-1.93169e-05
-0.000136072
0.000138381
2.39017e-05
-3.04886e-05
-0.000130728
0.000137314
4.05227e-05
-5.59766e-05
-0.000136435
0.000151889
8.02214e-05
-0.00011998
-0.000138799
0.000178558
0.000176353
-0.000217666
-7.11946e-05
0.000112507
0.000240213
-0.000245478
-5.18004e-05
5.70651e-05
0.000233239
-0.000206286
-3.70731e-05
1.01198e-05
0.000173642
-0.000147663
-2.3751e-06
-2.36041e-05
0.000124025
-0.000103656
-2.85198e-05
8.15055e-06
9.06266e-05
-7.29574e-05
-2.9832e-05
1.21629e-05
4.61697e-05
-3.7539e-05
-8.84658e-05
7.98351e-05
6.87065e-05
-9.40699e-05
-1.67042e-06
2.70338e-05
0.000110926
-0.00012458
5.85388e-05
-4.48845e-05
0.000137543
-0.000149026
6.18894e-05
-5.04061e-05
0.000153887
-0.000155254
4.88026e-05
-4.74357e-05
0.000158118
-0.000159914
1.9502e-05
-1.77056e-05
0.000162876
-0.00015926
5.09604e-05
-5.4577e-05
0.000153459
-0.00014701
4.63709e-05
-5.282e-05
0.000146602
-0.000149335
3.01183e-05
-2.73855e-05
0.00014796
-0.000141719
1.24948e-05
-1.87357e-05
0.000134827
-0.000129191
2.41891e-05
-2.98247e-05
-0.000178281
0.000163759
1.45219e-05
-8.20077e-06
-1.65576e-06
-0.000194079
0.000203936
5.60346e-06
-8.68822e-06
-0.000140807
0.000143892
1.28915e-05
-1.73131e-05
-0.00014321
0.000147632
2.15078e-05
-2.46131e-05
-0.000160859
0.000163964
2.47569e-05
-2.13667e-05
-0.000197413
0.000194023
2.41453e-05
-4.06791e-05
-0.000157292
0.000173826
6.58795e-05
-7.62687e-05
-7.16989e-05
8.2088e-05
7.84986e-05
-7.91751e-05
8.72016e-06
-8.04364e-06
7.36463e-05
-6.48135e-05
4.19439e-05
-5.07766e-05
5.29458e-05
-4.63402e-05
1.23238e-05
-1.89293e-05
4.99516e-05
-5.85848e-05
-3.92185e-06
1.25551e-05
6.9434e-05
-6.94539e-05
-6.28513e-05
6.28712e-05
6.54302e-05
-7.48212e-05
-4.94378e-05
5.88288e-05
8.71383e-05
-9.92349e-05
3.05537e-05
-1.8457e-05
0.0001115
-0.000126729
3.26452e-05
-1.74156e-05
0.000144616
-0.000157095
3.81996e-05
-2.57211e-05
0.000162056
-0.000146761
2.90551e-05
-4.435e-05
0.000132138
-0.000123271
6.17459e-05
-7.06122e-05
0.000113113
-9.73497e-05
6.99099e-05
-8.56735e-05
6.76906e-05
-3.19959e-05
1.83956e-05
-5.40903e-05
3.41596e-05
-8.37429e-05
1.83663e-06
4.77467e-05
0.000116657
-0.000137743
3.78702e-05
-1.67843e-05
-0.000153157
0.000147976
5.18133e-06
-1.56331e-05
1.26095e-05
-0.000211699
0.000214723
-7.05659e-06
1.76775e-06
-0.000148036
0.000153325
1.24731e-06
-3.53574e-06
-0.000150667
0.000152955
4.61578e-06
-3.4616e-06
-0.000163634
0.00016248
-1.31517e-06
1.13953e-05
-0.000181407
0.000171327
-2.70737e-05
3.77539e-05
-0.000172895
0.000162215
-3.89018e-05
3.05724e-05
-9.19962e-05
0.000100326
-1.80453e-05
9.2514e-06
1.55223e-06
7.24173e-06
-6.23433e-06
-3.50261e-06
5.2215e-05
-4.24781e-05
2.97896e-05
-5.57971e-05
5.18631e-06
2.08212e-05
7.75876e-05
-9.78477e-05
-3.64304e-05
5.66905e-05
0.000118942
-0.000130556
-7.72817e-05
8.88957e-05
0.000114299
-9.60636e-05
-5.23579e-05
3.41224e-05
8.96193e-05
-9.05815e-05
1.17495e-05
-1.07873e-05
9.00246e-05
-8.75431e-05
1.21624e-05
-1.46439e-05
8.88868e-05
-9.43368e-05
1.4711e-05
-9.26102e-06
9.81256e-05
-0.000101295
4.48824e-05
-4.17129e-05
0.000106512
-0.000107168
7.69525e-05
-7.62961e-05
0.000104977
-0.000103856
9.15047e-05
-9.26257e-05
0.000101272
-9.99758e-05
6.51075e-05
-6.64035e-05
9.5702e-05
-0.000109963
-6.87036e-05
8.29644e-05
0.000127549
-0.000136998
2.95043e-06
6.49856e-06
-0.000147241
0.000149302
-2.06096e-06
-1.21876e-05
1.7768e-05
-0.000212649
0.000207069
-1.55759e-05
1.07645e-05
-0.00015893
0.000163741
-7.23248e-06
4.63879e-06
-0.000155203
0.000157797
-3.02693e-06
2.45747e-06
-0.000161979
0.000162549
-2.93953e-06
4.2742e-06
-0.000165895
0.00016456
-5.58813e-06
4.16957e-06
-0.000155729
0.000157147
3.66863e-06
-2.25889e-05
-0.00011015
0.00012907
5.07921e-05
-7.86935e-05
-1.62884e-05
4.41898e-05
0.000110306
-0.000139919
6.88955e-06
2.27233e-05
0.000149896
-0.000153905
-3.39373e-05
3.7946e-05
0.000155728
-0.000153847
-6.8482e-05
6.66011e-05
0.000142534
-0.000118532
-8.40387e-05
6.00363e-05
8.91257e-05
-7.22764e-05
-1.04094e-05
-6.43987e-06
6.98034e-05
-6.79664e-05
1.22004e-05
-1.40375e-05
6.66937e-05