/*--------------------------------*- C++ -*----------------------------------*\
| =========                 |                                                 |
| \\      /  F ield         | OpenFOAM: The Open Source CFD Toolbox           |
|  \\    /   O peration     | Version:  v1912                                 |
|   \\  /    A nd           | Website:  www.openfoam.com                      |
|    \\/     M anipulation  |                                                 |
\*---------------------------------------------------------------------------*/
FoamFile
{
    version     2.0;
    format      ascii;
    class       volVectorField;
    location    "0.8";
    object      U;
}
// * * * * * * * * * * * * * * * * * * * * * * * * * * * * * * * * * * * * * //

dimensions      [0 1 -1 0 0 0 0];


internalField   nonuniform List<vector> 
9072
(
(-0.0235087 0.0219117 0)
(-0.0794855 0.00767213 0)
(-0.13168 0.00691707 0)
(-0.20624 0.00902442 0)
(-0.228011 -0.000286761 0)
(-0.218668 3.60811e-05 0)
(-0.232496 0.00245856 0)
(-0.267254 0.00456856 0)
(-0.306594 0.00425 0)
(-0.339649 0.00338828 0)
(-0.365961 0.00234865 0)
(-0.387486 0.0018228 0)
(-0.39318 -0.00693976 0)
(-0.357455 -0.0141116 0)
(-0.40394 0.0206737 0)
(-0.428081 -0.0069338 0)
(-0.233931 -0.0329762 0)
(-0.0516231 -0.0294403 0)
(-0.0365725 0.00358512 0)
(-0.377957 0.0399938 0)
(-0.295642 -0.0268612 0)
(-0.118649 -0.0222262 0)
(-0.00523098 -0.0100633 0)
(-0.0304538 0.0688911 0)
(-0.0981407 0.0365908 0)
(-0.169285 0.0417375 0)
(-0.25463 0.0290822 0)
(-0.257939 -0.00953287 0)
(-0.228007 0.0017226 0)
(-0.240256 0.0189484 0)
(-0.27289 0.0245155 0)
(-0.310654 0.0218524 0)
(-0.345608 0.0179067 0)
(-0.373333 0.0152761 0)
(-0.394734 0.0142664 0)
(-0.431121 0.0118336 0)
(-0.508736 0.0220961 0)
(-0.50321 0.00181523 0)
(-0.395414 -0.0708541 0)
(-0.343553 -0.0858468 0)
(-0.360883 -0.0227448 0)
(-0.422316 0.102612 0)
(-0.304684 -0.000699677 0)
(-0.138975 -0.105374 0)
(-0.0517219 -0.0706513 0)
(-0.0166366 -0.0321479 0)
(-0.0263929 0.110305 0)
(-0.0851949 0.0634344 0)
(-0.180439 0.0922385 0)
(-0.317891 0.0644027 0)
(-0.309605 -0.0333893 0)
(-0.248925 -0.00775077 0)
(-0.251593 0.027625 0)
(-0.277575 0.0398175 0)
(-0.311701 0.0391048 0)
(-0.345029 0.0329201 0)
(-0.370968 0.0252616 0)
(-0.384504 0.0200105 0)
(-0.383804 0.0276236 0)
(-0.37077 0.0315691 0)
(-0.313922 -0.0347539 0)
(-0.251331 -0.0959854 0)
(-0.240987 -0.0720297 0)
(-0.269653 -0.00971411 0)
(-0.205621 0.0481241 0)
(-0.0398607 -0.0736654 0)
(0.00496101 -0.135914 0)
(-0.010216 -0.0783697 0)
(-0.00729243 -0.0365253 0)
(-0.020883 0.145573 0)
(-0.0849783 0.0969954 0)
(-0.201346 0.159367 0)
(-0.321619 0.0968294 0)
(-0.29489 -0.0631503 0)
(-0.26401 -0.0233848 0)
(-0.266672 0.0373619 0)
(-0.294606 0.054678 0)
(-0.326044 0.0544828 0)
(-0.354423 0.0461017 0)
(-0.37688 0.0346006 0)
(-0.390533 0.0227906 0)
(-0.384284 0.0158189 0)
(-0.332591 0.00020967 0)
(-0.267292 -0.0620942 0)
(-0.238362 -0.108719 0)
(-0.192254 -0.0867722 0)
(-0.109705 -0.0300543 0)
(-0.00569294 -0.0168064 0)
(0.0810709 -0.0977364 0)
(0.0424787 -0.117986 0)
(0.00497252 -0.0710076 0)
(-0.005881 -0.0371995 0)
(-0.0127925 0.175041 0)
(-0.0867691 0.137117 0)
(-0.179768 0.213994 0)
(-0.23141 0.109014 0)
(-0.194739 -0.0742663 0)
(-0.246816 -0.0185334 0)
(-0.277327 0.0506547 0)
(-0.309363 0.0689245 0)
(-0.337596 0.0678737 0)
(-0.362367 0.0575399 0)
(-0.38299 0.0430762 0)
(-0.396147 0.0258735 0)
(-0.392515 0.00547806 0)
(-0.356933 -0.0272608 0)
(-0.303465 -0.0843087 0)
(-0.253627 -0.128314 0)
(-0.187066 -0.124021 0)
(-0.0884691 -0.0855284 0)
(0.0245895 -0.0666683 0)
(0.0752245 -0.0979057 0)
(0.0472258 -0.0976254 0)
(0.0209136 -0.0626299 0)
(0.00364302 -0.0352624 0)
(0.00370524 0.193421 0)
(-0.0734651 0.173489 0)
(-0.116181 0.236175 0)
(-0.10954 0.105689 0)
(-0.0736415 -0.0710985 0)
(-0.212812 0.0247134 0)
(-0.286382 0.0702684 0)
(-0.322652 0.0826412 0)
(-0.347803 0.0795427 0)
(-0.369843 0.0679274 0)
(-0.390223 0.0515768 0)
(-0.405606 0.0295988 0)
(-0.406376 -0.00152139 0)
(-0.380373 -0.0479699 0)
(-0.330434 -0.11035 0)
(-0.264407 -0.159668 0)
(-0.17628 -0.166306 0)
(-0.0722056 -0.134881 0)
(0.0221986 -0.104853 0)
(0.0676624 -0.101243 0)
(0.0588161 -0.0862628 0)
(0.0368407 -0.0538759 0)
(0.0163423 -0.0273886 0)
(0.0267963 0.181521 0)
(-0.0375418 0.201045 0)
(-0.0423009 0.22875 0)
(-0.000943571 0.0967664 0)
(-6.30568e-05 -0.037296 0)
(-0.213436 0.0952456 0)
(-0.297955 0.0943931 0)
(-0.333564 0.0957159 0)
(-0.355629 0.0898118 0)
(-0.37616 0.077909 0)
(-0.398192 0.0611146 0)
(-0.418548 0.0355869 0)
(-0.426771 -0.00489336 0)
(-0.409759 -0.0649073 0)
(-0.361693 -0.139294 0)
(-0.28066 -0.200761 0)
(-0.16902 -0.217456 0)
(-0.052353 -0.183958 0)
(0.0351832 -0.13765 0)
(0.0766835 -0.108595 0)
(0.0778571 -0.0792396 0)
(0.0570533 -0.0447887 0)
(0.0284341 -0.0145669 0)
(0.0394221 0.136817 0)
(0.0273307 0.226733 0)
(0.0128632 0.207724 0)
(0.0628723 0.0800873 0)
(-0.106677 0.0709693 0)
(-0.259462 0.151814 0)
(-0.31344 0.115679 0)
(-0.340877 0.107197 0)
(-0.359781 0.0990402 0)
(-0.379962 0.088205 0)
(-0.405348 0.0727769 0)
(-0.433539 0.0453488 0)
(-0.452553 -0.00358668 0)
(-0.445741 -0.0784887 0)
(-0.397888 -0.17181 0)
(-0.301202 -0.253245 0)
(-0.158605 -0.280701 0)
(-0.0075032 -0.235786 0)
(0.0907773 -0.166299 0)
(0.142507 -0.116288 0)
(0.159715 -0.069928 0)
(0.14176 -0.0281388 0)
(0.0960285 0.00630253 0)
(0.00750669 -0.157486 0)
(0.118469 0.0338031 0)
(-0.616118 0.0762457 0)
(-0.864722 0.0048757 0)
(-0.921828 -0.00524016 0)
(-0.854972 -0.0149587 0)
(-0.643021 -0.0270637 0)
(-0.343257 -0.0153696 0)
(-0.190357 -0.0177694 0)
(0.00529467 -0.00438465 0)
(-0.0503978 -0.0164566 0)
(-0.565686 0.0731612 0)
(-0.828196 -0.0151272 0)
(-0.0792531 -0.0300606 0)
(0.251422 -0.0266822 0)
(0.0911455 0.0231658 0)
(0.133483 -0.055256 0)
(0.118393 0.0568492 0)
(-0.488996 0.0126934 0)
(-0.223588 -0.110769 0)
(-0.381874 0.322978 0)
(-0.861355 0.173529 0)
(-0.609067 -0.0100217 0)
(-0.410868 -0.0141855 0)
(-0.518132 -0.0391366 0)
(-0.408993 -0.129959 0)
(-0.0814513 -0.131064 0)
(0.183798 -0.109472 0)
(0.200631 0.0246514 0)
(-0.242974 0.211265 0)
(-0.81939 0.258885 0)
(-0.525853 -0.201546 0)
(0.298776 -0.536686 0)
(1.09523 0.0744011 0)
(0.628954 0.211794 0)
(-0.00406634 -0.0878132 0)
(-0.354668 0.357374 0)
(-0.544619 -0.166515 0)
(-0.343213 0.182007 0)
(-0.661187 0.516664 0)
(0.152053 -0.0650365 0)
(0.460212 -0.305319 0)
(0.582078 -0.223781 0)
(0.188166 0.565198 0)
(-0.00330807 -0.222235 0)
(-0.0143761 -0.26998 0)
(0.26518 -0.200706 0)
(-0.0911698 0.175944 0)
(-0.73704 0.492845 0)
(-0.0468419 0.0774451 0)
(-0.476547 -0.300105 0)
(0.583306 -0.904498 0)
(0.913708 -0.102605 0)
(0.952472 0.535863 0)
(0.145714 0.156481 0)
(-0.29865 0.517639 0)
(0.0366564 -0.329478 0)
(-0.214897 0.289671 0)
(-0.175321 0.250117 0)
(0.396468 -0.167595 0)
(0.302676 -0.247606 0)
(-0.573787 -0.383204 0)
(0.513076 0.669687 0)
(0.466719 -0.250794 0)
(0.0561373 -0.278898 0)
(-0.186729 -0.0500848 0)
(-1.03583 0.483962 0)
(-0.462714 0.201972 0)
(-0.109547 0.141481 0)
(0.333041 -0.638051 0)
(0.745748 -1.03059 0)
(0.7 -0.110454 0)
(0.634259 0.636517 0)
(0.403604 0.455707 0)
(0.126112 0.4897 0)
(0.370025 -0.393357 0)
(-0.00546834 0.175364 0)
(0.325248 0.148017 0)
(0.320775 -0.136308 0)
(0.366784 -0.144441 0)
(0.555926 -0.0483777 0)
(0.447174 0.223277 0)
(0.834716 -0.0621981 0)
(0.0439078 -0.106081 0)
(-1.08265 0.448573 0)
(-1.23674 0.347798 0)
(-0.211317 -0.198646 0)
(0.0154375 0.205656 0)
(0.737969 -0.983096 0)
(0.72877 -1.0672 0)
(0.457218 -0.0710062 0)
(0.56098 0.593557 0)
(0.715365 0.5429 0)
(0.509032 0.478305 0)
(0.366302 -0.265585 0)
(0.0173829 0.0852315 0)
(0.24012 0.100183 0)
(0.551293 -0.220275 0)
(0.841724 -0.264298 0)
(0.89277 -0.0908249 0)
(0.986713 0.0924938 0)
(0.984409 0.172555 0)
(-0.00576292 0.278059 0)
(-1.26809 0.842667 0)
(-0.879166 -0.0423694 0)
(-0.328395 -0.479574 0)
(0.250547 0.0985015 0)
(0.602189 -1.14922 0)
(0.332412 -1.00103 0)
(-0.0455048 0.00350895 0)
(0.358537 0.490619 0)
(0.667668 0.501365 0)
(0.757389 0.515827 0)
(0.438637 0.0120281 0)
(-0.261542 0.0904128 0)
(0.253326 -0.038629 0)
(0.890803 -0.418194 0)
(0.907894 -0.29117 0)
(0.860675 -0.120386 0)
(0.873945 0.00650895 0)
(0.63386 0.376679 0)
(-0.219508 0.725472 0)
(-1.14534 1.11449 0)
(-0.86838 -0.273097 0)
(-0.462516 -0.502665 0)
(-0.379816 -0.218745 0)
(0.342722 -1.15187 0)
(-0.581421 -0.633491 0)
(-0.712247 -0.0957257 0)
(-0.104472 0.131014 0)
(0.473032 0.336108 0)
(0.691259 0.521504 0)
(0.508773 0.308864 0)
(0.295001 -0.0911731 0)
(0.704949 -0.389485 0)
(0.469227 -0.358944 0)
(0.174628 -0.208265 0)
(0.466442 -0.0876833 0)
(0.387813 -0.000804869 0)
(-0.410974 0.74371 0)
(-0.500734 1.04299 0)
(-1.02132 1.23379 0)
(-0.614161 -0.505984 0)
(-0.646717 -0.523977 0)
(-0.225478 -0.450704 0)
(0.153745 -0.937609 0)
(-0.831111 -0.355441 0)
(-1.38706 -0.0996316 0)
(-1.69974 -0.112185 0)
(-0.678136 -0.015246 0)
(0.263668 0.437428 0)
(-0.197459 0.532522 0)
(-0.0291229 0.103658 0)
(0.0626224 0.223816 0)
(0.0378428 0.1943 0)
(-0.0609827 0.153443 0)
(-0.274373 0.206553 0)
(-0.302958 0.178419 0)
(-0.326721 0.131212 0)
(-0.346782 0.116881 0)
(-0.364832 0.109429 0)
(-0.387366 0.102279 0)
(-0.418943 0.0914943 0)
(-0.459389 0.0649394 0)
(-0.49414 0.00657076 0)
(-0.50369 -0.090277 0)
(-0.465444 -0.21492 0)
(-0.344662 -0.33751 0)
(-0.140291 -0.399455 0)
(0.0394972 -0.328922 0)
(0.12504 -0.230515 0)
(0.148151 -0.16504 0)
(0.111144 -0.10159 0)
(0.0910617 -0.0378726 0)
(0.171777 0.0290125 0)
(-0.20916 0.438995 0)
(-0.267829 0.302293 0)
(-0.41824 0.27887 0)
(-0.480322 0.239053 0)
(-0.450291 0.173947 0)
(-0.380283 0.154363 0)
(-0.342503 0.141162 0)
(-0.321594 0.132929 0)
(-0.321433 0.133214 0)
(-0.343662 0.139571 0)
(-0.397812 0.148696 0)
(-0.487674 0.128279 0)
(-0.587535 0.0552936 0)
(-0.657064 -0.0817763 0)
(-0.634896 -0.303833 0)
(-0.553253 -0.520053 0)
(-0.491905 -0.567139 0)
(-0.491701 -0.363679 0)
(-0.829349 -0.0776804 0)
(-1.30909 0.13099 0)
(-1.32919 -0.0512122 0)
(-1.0514 -0.205702 0)
(-0.853722 -0.211658 0)
(-0.162903 1.03928 0)
(-0.556742 0.516237 0)
(-0.719794 0.329901 0)
(-0.904397 0.309837 0)
(-1.21935 0.149129 0)
(-0.992683 0.0602127 0)
(-0.726075 0.0560456 0)
(-0.594745 0.074889 0)
(-0.513067 0.0991982 0)
(-0.442054 0.125627 0)
(-0.412655 0.193396 0)
(-0.482305 0.245723 0)
(-0.629353 0.188656 0)
(-0.785304 -0.0105697 0)
(-1.02614 -0.223915 0)
(-1.26192 -0.446196 0)
(-1.13011 -0.592009 0)
(-1.13339 -0.198313 0)
(-1.21706 0.311169 0)
(-1.23925 0.112134 0)
(-1.35963 -0.129194 0)
(-1.46744 -0.347872 0)
(-1.41084 -0.276672 0)
(-0.10798 1.51932 0)
(-0.602611 0.887453 0)
(-1.10677 0.692661 0)
(-1.68327 0.790491 0)
(-2.03732 0.457224 0)
(-2.11066 -0.0609542 0)
(-2.03888 -0.310921 0)
(-1.9378 -0.319033 0)
(-1.78922 -0.245206 0)
(-1.59734 -0.084039 0)
(-1.4412 0.230347 0)
(-1.10979 0.303196 0)
(-1.07109 0.319917 0)
(-1.33139 0.311194 0)
(-1.7929 0.156171 0)
(-1.81043 -0.64491 0)
(-1.6408 -0.865337 0)
(-1.27678 -0.174229 0)
(-1.22201 0.238609 0)
(-0.867646 0.0538486 0)
(-0.572968 0.0986215 0)
(-1.17274 -0.0944857 0)
(-1.43742 -0.263627 0)
(-0.0603001 1.85131 0)
(-0.436469 1.36047 0)
(-0.844296 1.23628 0)
(-1.17247 1.1058 0)
(-1.23447 0.456855 0)
(-1.24832 -0.14759 0)
(-1.23489 -0.298917 0)
(-1.21801 -0.251665 0)
(-1.24211 -0.172824 0)
(-1.30362 -0.0242096 0)
(-1.32101 0.00885559 0)
(-1.46395 0.151861 0)
(-1.60298 0.465246 0)
(-1.92467 0.682416 0)
(-1.9432 0.255395 0)
(-1.41535 -0.626101 0)
(-1.5977 -0.824369 0)
(-1.6406 -0.667515 0)
(-1.07645 -0.0972156 0)
(-1.05262 -0.203229 0)
(-1.00553 0.0691184 0)
(-0.712945 0.420653 0)
(-1.22382 -0.0827266 0)
(-0.0377496 2.01925 0)
(-0.208399 1.62159 0)
(-0.324045 1.48369 0)
(-0.401591 1.23973 0)
(-0.525698 0.610588 0)
(-0.762392 0.0223565 0)
(-0.947703 -0.233257 0)
(-1.05667 -0.204768 0)
(-1.16475 -0.042547 0)
(-1.19144 -0.0203923 0)
(-1.37153 0.168332 0)
(-1.75738 0.430058 0)
(-2.1423 0.829141 0)
(-2.59526 0.919762 0)
(-1.82226 -0.568824 0)
(-1.66724 -0.836393 0)
(-1.65108 -0.798165 0)
(-1.51066 -0.739044 0)
(-1.554 -0.401643 0)
(-1.36046 -0.159197 0)
(-1.27196 -0.241534 0)
(-0.993564 0.230309 0)
(-0.998288 0.687259 0)
(-0.0369467 2.14447 0)
(-0.160347 1.72029 0)
(-0.184694 1.47218 0)
(-0.144623 1.27855 0)
(-0.292862 0.851253 0)
(-0.648906 0.337349 0)
(-0.902779 -0.0374604 0)
(-0.997186 -0.179486 0)
(-1.13051 0.0533434 0)
(-1.85673 0.39547 0)
(-2.22541 0.580025 0)
(-2.37549 0.794551 0)
(-2.63042 1.2347 0)
(-2.18438 0.548606 0)
(-1.64988 -0.815629 0)
(-1.68249 -0.791232 0)
(-1.78593 -0.707231 0)
(-1.92582 -0.532885 0)
(-1.96578 -0.504683 0)
(-1.88733 -0.380729 0)
(-1.83072 -0.439413 0)
(-1.77753 -0.0346685 0)
(-1.35837 0.624207 0)
(0.00872665 2.26439 0)
(-0.183809 1.83379 0)
(-0.237693 1.44149 0)
(-0.25915 1.31892 0)
(-0.463595 1.16441 0)
(-1.0203 0.787681 0)
(-1.66129 0.246503 0)
(-2.38067 0.469422 0)
(-2.6368 0.593572 0)
(-2.62412 0.600501 0)
(-2.36502 0.511635 0)
(-1.97818 0.712848 0)
(-1.64642 0.783322 0)
(-1.37773 -0.13685 0)
(-1.49578 -0.745092 0)
(-1.6004 -0.743823 0)
(-1.65023 -0.562888 0)
(-1.86582 -0.420682 0)
(-1.92884 -0.519371 0)
(-1.87095 -0.427559 0)
(-1.80529 -0.232463 0)
(-1.96913 0.0337968 0)
(-1.57086 -0.196236 0)
(0.126831 2.15749 0)
(-0.147305 1.95631 0)
(-0.192127 1.48047 0)
(-0.286502 1.44301 0)
(-0.499132 1.55977 0)
(-0.994765 1.72142 0)
(-2.17941 0.930271 0)
(-2.65915 0.531124 0)
(-2.4035 0.293226 0)
(-1.72581 -0.302064 0)
(-1.16119 0.242069 0)
(-0.876717 0.203048 0)
(-0.325175 0.995684 0)
(-0.914837 0.129963 0)
(-1.24922 -0.569163 0)
(-1.56146 -0.619441 0)
(-1.6609 -0.512465 0)
(-1.71183 -0.136382 0)
(-1.75952 -0.566435 0)
(-1.57531 -0.491973 0)
(-1.5949 -0.312298 0)
(-1.56536 -0.225764 0)
(-1.40695 -0.312204 0)
(0.116856 1.83506 0)
(0.00606234 2.14757 0)
(-0.0734868 1.53108 0)
(-0.160417 1.57094 0)
(-0.245882 1.7622 0)
(-0.235541 2.15614 0)
(-0.520672 1.91446 0)
(-0.82814 0.825955 0)
(-0.832523 -0.0982592 0)
(-0.728598 -0.509242 0)
(-0.513709 -0.214614 0)
(-0.59191 0.0522433 0)
(-0.78155 0.625049 0)
(-0.74446 0.64489 0)
(-1.0093 -0.247181 0)
(-1.25962 -0.251275 0)
(-1.68481 -0.439536 0)
(-1.61989 -0.408566 0)
(-1.37729 -0.708773 0)
(-1.14494 -0.846238 0)
(-0.598303 -0.319796 0)
(-0.412669 0.217274 0)
(-1.40625 -0.399397 0)
(-0.0268041 1.61342 0)
(0.150312 2.317 0)
(0.0461367 1.62366 0)
(-0.0250782 1.63937 0)
(-0.0482316 1.76176 0)
(0.0517262 1.90114 0)
(0.355944 1.81091 0)
(0.400139 1.06473 0)
(0.148702 0.0494505 0)
(0.0441508 -0.589302 0)
(-0.465914 0.108293 0)
(-0.955134 0.488358 0)
(-1.348 0.940074 0)
(-1.11747 0.464712 0)
(-0.969971 -0.116502 0)
(-0.941347 -0.127857 0)
(-0.981396 -0.084298 0)
(-1.10001 -0.45109 0)
(-1.16591 -0.82251 0)
(-1.11656 -0.994445 0)
(-1.08788 -0.709746 0)
(-1.01555 0.841302 0)
(-1.46578 -0.0261054 0)
(-0.0941237 1.59521 0)
(0.172442 2.27051 0)
(0.142752 1.74452 0)
(0.0625697 1.68824 0)
(0.0268844 1.74947 0)
(0.0358793 1.77533 0)
(0.0597205 1.66779 0)
(-0.110554 1.25734 0)
(-0.599307 0.361551 0)
(-1.45087 0.191204 0)
(-1.6438 0.421933 0)
(-1.67261 0.800796 0)
(-1.44519 0.830575 0)
(-0.7979 -0.104517 0)
(-0.757275 -0.221455 0)
(-0.707267 -0.24757 0)
(-0.842877 0.0065831 0)
(-0.923878 -0.436683 0)
(-0.86147 -0.708829 0)
(-0.984497 -0.948461 0)
(-1.06334 -0.695933 0)
(-1.44181 1.02955 0)
(-1.31823 0.170451 0)
(-0.0744323 1.66374 0)
(0.134282 2.11568 0)
(0.171587 1.81817 0)
(0.10357 1.75003 0)
(0.0558443 1.7794 0)
(0.0130673 1.8018 0)
(-0.0816345 1.80985 0)
(-0.381518 1.86258 0)
(-1.3502 1.00619 0)
(-1.84956 0.345902 0)
(-1.77607 0.34209 0)
(-1.47851 0.400915 0)
(-1.23748 0.314505 0)
(-1.13971 -0.111283 0)
(-0.48711 -0.501637 0)
(-0.373621 -0.123832 0)
(-0.735676 0.38166 0)
(-0.893007 -0.568296 0)
(-0.729866 -0.734292 0)
(-0.846314 -0.837794 0)
(-0.992656 -0.565017 0)
(-0.973685 0.753728 0)
(-0.607736 0.115784 0)
(-0.0328217 1.72215 0)
(0.0857019 1.95102 0)
(0.150883 1.84036 0)
(0.111855 1.80444 0)
(0.0788114 1.81881 0)
(0.0480857 1.8552 0)
(0.0107273 1.93696 0)
(-0.0245699 2.15252 0)
(-0.10964 2.1749 0)
(-1.11773 0.730957 0)
(-1.72462 0.183809 0)
(-1.76539 0.257366 0)
(-1.20884 -0.156545 0)
(-0.683841 -0.70232 0)
(-0.74504 -0.489852 0)
(-0.792356 0.0810222 0)
(-1.05725 0.510174 0)
(-0.642639 -0.724631 0)
(-0.679731 -0.74184 0)
(-0.792171 -0.651092 0)
(-1.00333 -0.387083 0)
(-0.929313 0.336532 0)
(-0.561119 -0.106092 0)
(0.00733007 1.71749 0)
(0.0564162 1.8312 0)
(0.110554 1.83443 0)
(0.108143 1.82772 0)
(0.10084 1.83759 0)
(0.0985351 1.86863 0)
(0.118744 1.92755 0)
(0.205335 2.02841 0)
(0.471532 2.14237 0)
(0.452289 1.65136 0)
(-0.111076 0.857895 0)
(-0.542736 0.241163 0)
(-0.690623 -0.422357 0)
(-0.919068 -0.610984 0)
(-1.02079 -0.394891 0)
(-0.989725 0.225392 0)
(-0.700952 -0.0176603 0)
(-0.309817 -0.787267 0)
(-0.793318 -0.507711 0)
(-0.924126 -0.462282 0)
(-1.21817 -0.071235 0)
(-1.05374 -0.0241119 0)
(-0.643672 -0.45013 0)
(0.0256541 1.65539 0)
(0.0487671 1.76651 0)
(0.0909188 1.81139 0)
(0.110819 1.82259 0)
(0.118703 1.83558 0)
(0.128681 1.85384 0)
(0.160403 1.87152 0)
(0.243925 1.87764 0)
(0.418129 1.83619 0)
(0.64742 1.63871 0)
(0.654155 1.19651 0)
(0.382535 0.630507 0)
(-0.0788032 0.104294 0)
(-0.823831 -0.341411 0)
(-1.04377 -0.3899 0)
(-0.854476 -0.258287 0)
(-0.227262 -0.477233 0)
(-0.64542 -0.246063 0)
(-0.893473 -0.343831 0)
(-1.00955 -0.306104 0)
(-1.22733 0.0368027 0)
(-0.918006 -0.424724 0)
(-0.603587 -0.76377 0)
(0.0342279 1.56464 0)
(0.0614333 1.72823 0)
(0.103114 1.78006 0)
(0.127256 1.80739 0)
(0.134515 1.82876 0)
(0.137127 1.8394 0)
(0.150729 1.82871 0)
(0.193195 1.78227 0)
(0.27658 1.67475 0)
(0.392928 1.48301 0)
(0.483326 1.20708 0)
(0.442977 0.868977 0)
(0.228626 0.558531 0)
(-0.116657 0.316673 0)
(-0.606501 -0.306344 0)
(-0.52127 -0.596868 0)
(-0.480668 -0.349901 0)
(-0.224695 0.0248731 0)
(-0.797078 -0.148427 0)
(-1.02246 -0.125769 0)
(-1.02852 -0.11302 0)
(-0.71064 -0.744401 0)
(-0.516044 -0.960969 0)
(0.0457942 1.44001 0)
(0.0917356 1.68836 0)
(0.141105 1.74533 0)
(0.161235 1.79667 0)
(0.155029 1.83324 0)
(0.134266 1.84614 0)
(0.112249 1.82285 0)
(0.102321 1.75031 0)
(0.114322 1.61498 0)
(0.147473 1.41083 0)
(0.192244 1.16241 0)
(0.222597 0.917463 0)
(0.197229 0.718347 0)
(0.125866 0.560705 0)
(-0.0493526 0.0587202 0)
(-0.0882089 -0.761221 0)
(-0.491668 -0.240202 0)
(-0.808057 0.0594655 0)
(-0.563932 0.411188 0)
(-1.04449 0.0481329 0)
(-0.799879 -0.432211 0)
(-0.521023 -0.956307 0)
(-0.433391 -1.04672 0)
(0.0619379 1.26106 0)
(0.150056 1.63601 0)
(0.209481 1.7073 0)
(0.221648 1.79965 0)
(0.190751 1.86254 0)
(0.133439 1.88898 0)
(0.0625706 1.86651 0)
(-0.00822385 1.78258 0)
(-0.0653014 1.62606 0)
(-0.0929209 1.39594 0)
(-0.0729776 1.12078 0)
(-0.00258825 0.877609 0)
(0.0522982 0.716629 0)
(0.0098217 0.602992 0)
(-0.0180182 0.174461 0)
(-0.229014 -0.393729 0)
(-0.849078 0.161622 0)
(-0.967016 0.00797046 0)
(-1.0878 0.469733 0)
(-1.0102 0.0641973 0)
(-0.577822 -0.795378 0)
(-0.439238 -1.06032 0)
(-0.422974 -1.05698 0)
(0.0875659 0.996346 0)
(0.264512 1.55589 0)
(0.33234 1.67106 0)
(0.323925 1.82515 0)
(0.253491 1.93006 0)
(0.14599 1.98218 0)
(0.015464 1.97195 0)
(-0.130856 1.88651 0)
(-0.27213 1.71072 0)
(-0.377494 1.43003 0)
(-0.377073 1.05486 0)
(-0.234054 0.797795 0)
(-0.0808637 0.731281 0)
(-0.295986 0.693128 0)
(-0.206701 0.123085 0)
(-0.793947 0.347396 0)
(-0.943122 0.278989 0)
(-1.14348 0.218298 0)
(-1.49681 0.478943 0)
(-0.857391 -0.490732 0)
(-0.561692 -0.99683 0)
(-0.47124 -1.10113 0)
(-0.449325 -1.06472 0)
(0.189771 0.554792 0)
(0.498965 1.42078 0)
(0.555433 1.6668 0)
(0.493426 1.88668 0)
(0.371419 2.04638 0)
(0.195248 2.13475 0)
(-0.0114728 2.15158 0)
(-0.244189 2.08603 0)
(-0.505353 1.90103 0)
(-0.763961 1.55932 0)
(-0.787173 0.927008 0)
(-0.600049 0.497335 0)
(-0.867364 0.822083 0)
(-0.447632 0.758154 0)
(-0.897473 0.625711 0)
(-1.04159 0.50133 0)
(-1.2921 0.463204 0)
(-1.99457 0.813959 0)
(-1.40469 -0.164588 0)
(-0.910063 -0.905154 0)
(-0.637442 -1.16634 0)
(-0.529478 -1.15568 0)
(-0.460053 -1.11479 0)
(0.164596 -1.22726 0)
(1.24532 1.40946 0)
(0.935661 1.75281 0)
(0.706107 2.02801 0)
(0.476367 2.24657 0)
(0.231623 2.36294 0)
(-0.0393533 2.40778 0)
(-0.354062 2.37984 0)
(-0.73499 2.25798 0)
(-1.19977 1.82394 0)
(-1.28374 0.82866 0)
(-1.51793 0.752765 0)
(-1.45817 0.658638 0)
(-1.30249 0.689684 0)
(-1.26584 0.675789 0)
(-1.73499 0.847582 0)
(-2.44258 1.21024 0)
(-1.92782 0.264394 0)
(-1.37076 -0.71913 0)
(-0.933633 -1.28095 0)
(-0.677863 -1.34316 0)
(-0.540461 -1.25469 0)
(-0.437976 -1.19978 0)
(-0.546438 -1.50138 0)
(0.668332 1.24692 0)
(0.94006 1.92591 0)
(1.31931 2.26525 0)
(1.02688 2.57523 0)
(0.600513 2.68685 0)
(0.198407 2.81135 0)
(-0.379991 2.77287 0)
(-0.848282 2.739 0)
(-1.08994 2.02919 0)
(-1.24607 1.09095 0)
(-1.42319 0.823401 0)
(-1.57978 0.637955 0)
(-1.85279 0.776478 0)
(-2.48117 1.25247 0)
(-2.70711 1.37479 0)
(-2.12389 0.655691 0)
(-1.59859 -0.272341 0)
(-1.20011 -1.16435 0)
(-0.857402 -1.60331 0)
(-0.633643 -1.5236 0)
(-0.491535 -1.37703 0)
(-0.383542 -1.29529 0)
(-0.552366 -0.232713 0)
(-1.10265 0.838063 0)
(-0.66174 1.43579 0)
(-0.166883 1.9537 0)
(0.292575 2.69118 0)
(0.488194 2.87932 0)
(0.479796 3.39824 0)
(-0.369487 3.41141 0)
(-0.99505 3.14725 0)
(-0.755287 1.88943 0)
(-0.893828 1.33767 0)
(-1.21783 1.19733 0)
(-1.8462 1.11649 0)
(-2.37504 1.32643 0)
(-2.39921 1.3011 0)
(-1.95105 0.807566 0)
(-1.53981 0.164484 0)
(-1.22883 -0.597956 0)
(-0.93763 -1.47677 0)
(-0.684817 -1.86068 0)
(-0.510244 -1.68409 0)
(-0.389336 -1.49421 0)
(-0.298291 -1.38176 0)
(-0.203986 0.794829 0)
(-0.973726 0.876181 0)
(-0.683982 0.8261 0)
(-0.566339 1.4845 0)
(-0.42744 2.33143 0)
(-0.139277 2.49677 0)
(0.137452 3.63911 0)
(-0.661504 4.2942 0)
(-1.23113 3.27455 0)
(-0.852814 1.66808 0)
(-0.765551 1.54868 0)
(-1.29534 1.70365 0)
(-1.65834 1.61022 0)
(-1.74228 1.40383 0)
(-1.56801 1.01944 0)
(-1.53143 0.59006 0)
(-1.34651 -0.127498 0)
(-0.894176 -0.975091 0)
(-0.610832 -1.71854 0)
(-0.428428 -2.05473 0)
(-0.322229 -1.803 0)
(-0.245131 -1.58283 0)
(-0.187365 -1.44494 0)
(-0.0586731 1.10327 0)
(-0.21349 0.977651 0)
(-0.184603 0.794789 0)
(-0.174442 1.56316 0)
(-0.178019 2.33667 0)
(-0.350324 2.34293 0)
(-0.359513 3.63821 0)
(-1.06069 5.19851 0)
(-1.11741 2.89214 0)
(-1.0918 1.63156 0)
(-1.41277 1.96619 0)
(-1.61153 1.94409 0)
(-1.47655 1.6336 0)
(-1.1773 1.24049 0)
(-1.01793 0.984193 0)
(-0.8031 0.418315 0)
(-0.316549 -0.577984 0)
(-0.233812 -1.26865 0)
(-0.163443 -1.86461 0)
(-0.0983488 -2.1505 0)
(-0.0922144 -1.85267 0)
(-0.0757823 -1.62543 0)
(-0.0604434 -1.47526 0)
(-0.0741574 1.22577 0)
(-0.0509444 0.977856 0)
(-0.52704 0.945917 0)
(-0.359755 1.44815 0)
(-0.123066 2.34159 0)
(-0.169939 2.63212 0)
(-0.624913 3.95698 0)
(-1.0905 5.81949 0)
(-1.06402 2.60662 0)
(-1.35622 2.0264 0)
(-1.97916 2.32087 0)
(-1.95664 1.84944 0)
(-1.17072 1.01073 0)
(-0.396522 0.674783 0)
(0.0367606 0.674142 0)
(0.40163 0.0718493 0)
(0.603073 -0.642962 0)
(0.286141 -1.0551 0)
(0.253438 -1.88551 0)
(0.226304 -2.12348 0)
(0.13804 -1.82342 0)
(0.0971081 -1.61651 0)
(0.069872 -1.46918 0)
(-0.184122 1.58914 0)
(-0.527576 1.43216 0)
(-1.15324 1.12655 0)
(-1.07197 1.17286 0)
(-0.592749 2.03656 0)
(-0.346194 2.83537 0)
(-0.710413 4.50328 0)
(-0.880843 6.06296 0)
(-0.999904 2.76943 0)
(-1.3309 2.49939 0)
(-1.29884 2.26289 0)
(-0.221759 0.901764 0)
(0.468629 0.0954904 0)
(0.923056 0.348359 0)
(1.09844 0.648456 0)
(0.960649 -0.0194166 0)
(0.626602 -0.438893 0)
(0.315476 -0.909766 0)
(0.591028 -1.97255 0)
(0.485071 -2.00379 0)
(0.342492 -1.73537 0)
(0.256679 -1.56204 0)
(0.192359 -1.42857 0)
(-0.239472 2.15963 0)
(-0.783026 2.14131 0)
(-1.66389 1.56458 0)
(-1.92369 0.879629 0)
(-1.41069 1.50381 0)
(-0.934264 2.77481 0)
(-0.816035 4.61434 0)
(-0.322908 6.12063 0)
(-0.717873 3.27178 0)
(-0.97008 2.43383 0)
(-0.247408 1.46828 0)
(-0.257023 0.235134 0)
(0.21741 -0.268496 0)
(0.394682 0.0186086 0)
(0.735122 0.455753 0)
(0.667626 0.238542 0)
(0.264376 -0.0322897 0)
(0.742016 -1.30087 0)
(0.910023 -1.987 0)
(0.692253 -1.81553 0)
(0.516166 -1.60787 0)
(0.393111 -1.46953 0)
(0.298561 -1.35823 0)
(-0.286341 2.7472 0)
(-0.749672 3.11441 0)
(-1.56906 2.2249 0)
(-2.0162 1.05443 0)
(-2.15571 0.935871 0)
(-1.56161 2.27091 0)
(-0.838729 4.06247 0)
(0.325345 5.43116 0)
(0.437026 3.81055 0)
(0.537205 2.1574 0)
(0.817892 1.30891 0)
(0.774855 0.613484 0)
(0.508056 -0.487654 0)
(0.466374 0.0819334 0)
(0.420525 0.349154 0)
(0.529283 0.372698 0)
(0.942125 -0.307821 0)
(1.40974 -1.5854 0)
(1.16948 -1.76756 0)
(0.856047 -1.57486 0)
(0.650816 -1.44613 0)
(0.498706 -1.34675 0)
(0.382305 -1.26453 0)
(-0.151528 3.38956 0)
(-0.682498 3.86398 0)
(-1.07601 2.70083 0)
(-1.35318 1.40739 0)
(-1.52171 1.02196 0)
(-1.54232 1.57181 0)
(-0.769287 2.92411 0)
(0.555054 3.92055 0)
(1.79809 3.52661 0)
(2.18225 2.14097 0)
(1.98438 1.26712 0)
(1.97031 0.635195 0)
(1.73895 -0.0720744 0)
(1.38992 0.0710954 0)
(1.35128 0.286819 0)
(1.54305 -0.0789429 0)
(1.94381 -0.908949 0)
(1.71082 -1.36397 0)
(1.25551 -1.37228 0)
(0.948743 -1.31534 0)
(0.732693 -1.26082 0)
(0.567644 -1.20526 0)
(0.439747 -1.15543 0)
(0.269453 3.20732 0)
(-0.522629 4.03262 0)
(-0.565869 2.94639 0)
(-0.666667 1.43679 0)
(-0.541814 1.0233 0)
(-0.451422 1.45514 0)
(-0.189821 2.10538 0)
(0.574822 2.62126 0)
(1.53452 2.57465 0)
(2.12438 1.96811 0)
(2.2547 1.34027 0)
(2.28944 0.723327 0)
(2.10012 0.237857 0)
(1.89128 0.158012 0)
(1.96765 0.151115 0)
(2.09249 -0.220018 0)
(1.91574 -0.678079 0)
(1.54477 -0.925641 0)
(1.21764 -1.03483 0)
(0.963884 -1.07273 0)
(0.761258 -1.07331 0)
(0.599735 -1.05854 0)
(0.470359 -1.03945 0)
(0.314865 2.13467 0)
(0.695429 4.2989 0)
(0.5609 3.26996 0)
(0.371132 1.44907 0)
(0.296162 0.901889 0)
(0.332319 1.32071 0)
(0.50993 1.76445 0)
(0.874598 1.99502 0)
(1.3509 1.94343 0)
(1.75125 1.6271 0)
(1.95872 1.20095 0)
(2.00173 0.773423 0)
(1.88716 0.438858 0)
(1.74966 0.24459 0)
(1.70622 0.0876236 0)
(1.6778 -0.150536 0)
(1.55028 -0.430257 0)
(1.34808 -0.650435 0)
(1.12847 -0.787953 0)
(0.924706 -0.863033 0)
(0.748603 -0.900487 0)
(0.600416 -0.917287 0)
(0.476701 -0.923762 0)
(-0.0383143 1.34839 0)
(1.10839 3.85778 0)
(1.46546 3.41153 0)
(1.32679 1.72427 0)
(0.949458 1.1022 0)
(0.73879 1.31539 0)
(0.779865 1.5656 0)
(0.980842 1.66408 0)
(1.24709 1.59901 0)
(1.48051 1.38965 0)
(1.6176 1.1021 0)
(1.65335 0.802556 0)
(1.61248 0.537229 0)
(1.54627 0.323857 0)
(1.48984 0.131921 0)
(1.42949 -0.0742988 0)
(1.3286 -0.285976 0)
(1.18369 -0.466385 0)
(1.01929 -0.599296 0)
(0.857159 -0.689646 0)
(0.708579 -0.748852 0)
(0.577394 -0.787505 0)
(0.463104 -0.813095 0)
(-0.0664075 1.31183 0)
(0.431272 3.14539 0)
(1.04478 3.04495 0)
(1.26526 1.94026 0)
(1.04943 1.42272 0)
(0.864254 1.42105 0)
(0.851558 1.48147 0)
(0.955371 1.47972 0)
(1.10868 1.3978 0)
(1.2534 1.23808 0)
(1.35141 1.02638 0)
(1.39254 0.796338 0)
(1.38548 0.575067 0)
(1.35036 0.374752 0)
(1.30209 0.18787 0)
(1.23834 0.00419903 0)
(1.14925 -0.172072 0)
(1.03515 -0.326955 0)
(0.90679 -0.451969 0)
(0.776304 -0.547537 0)
(0.652018 -0.61877 0)
(0.537784 -0.671319 0)
(0.434445 -0.710141 0)
(-0.0195365 1.48638 0)
(-0.0227905 2.63554 0)
(0.520698 2.48513 0)
(0.873321 1.87094 0)
(0.877433 1.5646 0)
(0.820456 1.48327 0)
(0.828681 1.43697 0)
(0.895339 1.37301 0)
(0.990441 1.27497 0)
(1.08371 1.13654 0)
(1.15264 0.965832 0)
(1.18746 0.779083 0)
(1.18957 0.591571 0)
(1.16687 0.411812 0)
(1.12624 0.240381 0)
(1.06868 0.0760045 0)
(0.992509 -0.0783336 0)
(0.899794 -0.216487 0)
(0.796563 -0.334074 0)
(0.690113 -0.430637 0)
(0.585935 -0.507975 0)
(0.487176 -0.568817 0)
(0.395238 -0.616332 0)
(0.00148399 1.53131 0)
(0.0279466 2.36286 0)
(0.378765 2.03803 0)
(0.630861 1.71676 0)
(0.70016 1.56932 0)
(0.719446 1.48085 0)
(0.753915 1.39347 0)
(0.809391 1.30066 0)
(0.875892 1.1945 0)
(0.939464 1.06768 0)
(0.987882 0.921303 0)
(1.01431 0.762773 0)
(1.01769 0.600618 0)
(1.00066 0.440872 0)
(0.96633 0.286273 0)
(0.916355 0.138386 0)
(0.851776 -0.000246066 0)
(0.775044 -0.12653 0)
(0.690401 -0.237957 0)
(0.602276 -0.333562 0)
(0.514411 -0.41362 0)
(0.429551 -0.479392 0)
(0.349022 -0.532483 0)
(0.00502793 1.50116 0)
(0.0981474 2.16374 0)
(0.321879 1.769 0)
(0.483089 1.58953 0)
(0.559875 1.52163 0)
(0.610336 1.44154 0)
(0.659686 1.34434 0)
(0.71149 1.2434 0)
(0.763279 1.13686 0)
(0.809644 1.01905 0)
(0.844554 0.888996 0)
(0.863752 0.750173 0)
(0.86571 0.607474 0)
(0.851085 0.465102 0)
(0.821423 0.325886 0)
(0.77829 0.191924 0)
(0.723407 0.0652605 0)
(0.659085 -0.052026 0)
(0.588297 -0.15817 0)
(0.514175 -0.252023 0)
(0.43975 -0.333344 0)
(0.367308 -0.402272 0)
(0.298372 -0.459506 0)
(0.00785947 1.45369 0)
(0.109901 1.99736 0)
(0.26989 1.5975 0)
(0.380036 1.49275 0)
(0.450166 1.45949 0)
(0.509832 1.38693 0)
(0.564034 1.29247 0)
(0.612449 1.19424 0)
(0.65517 1.09241 0)
(0.690797 0.983136 0)
(0.716579 0.865581 0)
(0.730013 0.741644 0)
(0.729871 0.614296 0)
(0.716235 0.486426 0)
(0.690002 0.360349 0)
(0.652465 0.237959 0)
(0.605203 0.120956 0)
(0.550099 0.0109582 0)
(0.48951 -0.0906273 0)
(0.426217 -0.182871 0)
(0.362833 -0.265132 0)
(0.301741 -0.336963 0)
(0.244535 -0.398121 0)
(0.0120853 1.39876 0)
(0.103845 1.85987 0)
(0.223677 1.47853 0)
(0.30194 1.41868 0)
(0.363055 1.397 0)
(0.421985 1.32925 0)
(0.474118 1.24231 0)
(0.517556 1.15148 0)
(0.553327 1.05667 0)
(0.581485 0.955778 0)
(0.600751 0.848673 0)
(0.609705 0.736689 0)
(0.607564 0.621754 0)
(0.59431 0.505875 0)
(0.570496 0.390835 0)
(0.537044 0.278215 0)
(0.495178 0.169433 0)
(0.446537 0.0656685 0)
(0.393302 -0.0321758 0)
(0.338037 -0.123439 0)
(0.283678 -0.207413 0)
(0.233055 -0.283076 0)
(0.187265 -0.348487 0)
(0.0163821 1.33702 0)
(0.0924889 1.75041 0)
(0.181081 1.39375 0)
(0.239255 1.36061 0)
(0.292544 1.33942 0)
(0.345832 1.27557 0)
(0.391889 1.19745 0)
(0.429216 1.115 0)
(0.458938 1.02768 0)
(0.481281 0.934762 0)
(0.495553 0.836736 0)
(0.500968 0.734694 0)
(0.497055 0.630012 0)
(0.483743 0.524175 0)
(0.461321 0.418578 0)
(0.43041 0.314484 0)
(0.392023 0.212912 0)
(0.347608 0.114539 0)
(0.299049 0.0197671 0)
(0.248969 -0.0712709 0)
(0.201632 -0.158742 0)
(0.160247 -0.239977 0)
(0.12561 -0.310755 0)
(0.0159724 1.26163 0)
(0.0793633 1.67297 0)
(0.14066 1.33503 0)
(0.187988 1.31482 0)
(0.235241 1.29134 0)
(0.281072 1.23163 0)
(0.319861 1.16142 0)
(0.351067 1.0863 0)
(0.375476 1.00566 0)
(0.393093 0.919706 0)
(0.403455 0.829249 0)
(0.406076 0.735265 0)
(0.400605 0.638876 0)