# vtk DataFile Version 2.0
gauge_1
ASCII
DATASET POLYDATA
POINTS 9 double
0.02 0.201142 0.005
0.02 0.207523 0.005
0.02 0.213904 0.005
0.02 0.220285 0.005
0.02 0.226666 0.005
0.02 0.233047 0.005
0.02 0.239428 0.005
0.02 0.245809 0.005
0.02 0.25219 0.005
POINT_DATA 9
 FIELD attributes 1
alpha.water 1 9 float
0.200155 0.167772 0.0989649 0.0687045 0.0392536 0.0155398 0.00313214 0.000474031 4.53458e-05
