/*--------------------------------*- C++ -*----------------------------------*\
| =========                 |                                                 |
| \\      /  F ield         | OpenFOAM: The Open Source CFD Toolbox           |
|  \\    /   O peration     | Version:  v1912                                 |
|   \\  /    A nd           | Website:  www.openfoam.com                      |
|    \\/     M anipulation  |                                                 |
\*---------------------------------------------------------------------------*/
FoamFile
{
    version     2.0;
    format      ascii;
    class       surfaceScalarField;
    location    "0.15";
    object      alphaPhi0.water;
}
// * * * * * * * * * * * * * * * * * * * * * * * * * * * * * * * * * * * * * //

dimensions      [0 3 -1 0 0 0 0];
oriented        oriented;


internalField   nonuniform List<scalar> 
17936
(
1.09457e-06
-2.20572e-06
1.11116e-06
-2.8703e-06
4.64527e-06
-1.77497e-06
-6.30622e-06
7.90685e-06
-1.60063e-06
-9.49925e-06
1.11087e-05
-1.6095e-06
-1.27443e-05
1.44081e-05
-1.6638e-06
-1.6101e-05
1.78243e-05
-1.72331e-06
-1.95802e-05
2.13712e-05
-1.79097e-06
-2.31996e-05
2.50676e-05
-1.86801e-06
-2.6977e-05
2.89296e-05
-1.95256e-06
-3.09262e-05
3.29673e-05
-2.0411e-06
-3.50526e-05
3.71806e-05
-2.12802e-06
-3.93496e-05
4.15555e-05
-2.20592e-06
-4.37928e-05
4.60535e-05
-2.26074e-06
-4.83266e-05
5.05979e-05
-2.27139e-06
-5.2848e-05
5.50517e-05
-2.20371e-06
-5.71771e-05
5.91824e-05
-2.00524e-06
-6.10111e-05
6.25883e-05
-1.57729e-06
-6.38133e-05
6.45478e-05
-7.34493e-07
-6.45452e-05
6.34013e-05
1.14388e-06
-6.06145e-05
5.55504e-05
5.06411e-06
-4.73628e-05
3.51391e-05
1.22236e-05
-1.88764e-05
9.4166e-07
1.79346e-05
4.789e-06
-8.30056e-06
2.55209e-06
3.31868e-06
-4.43492e-06
1.11624e-06
-2.89723e-06
4.68642e-06
3.56823e-06
-5.35742e-06
-6.36485e-06
7.98089e-06
3.21922e-06
-4.83527e-06
-9.58777e-06
1.12119e-05
3.23587e-06
-4.86004e-06
-1.2862e-05
1.45399e-05
3.34422e-06
-5.02214e-06
-1.62466e-05
1.79836e-05
3.46298e-06
-5.19992e-06
-1.9753e-05
2.15573e-05
3.59808e-06
-5.40241e-06
-2.33989e-05
2.528e-05
3.75183e-06
-5.63288e-06
-2.72023e-05
2.91677e-05
3.92059e-06
-5.88592e-06
-3.1177e-05
3.32308e-05
4.09738e-06
-6.15124e-06
-3.53291e-05
3.74704e-05
4.27114e-06
-6.41243e-06
-3.96533e-05
4.18739e-05
4.42717e-06
-6.64776e-06
-4.41271e-05
4.64056e-05
4.53776e-06
-6.81633e-06
-4.86991e-05
5.0994e-05
4.56123e-06
-6.85615e-06
-5.32714e-05
5.55078e-05
4.42914e-06
-6.66552e-06
-5.76734e-05
5.97296e-05
4.03886e-06
-6.09504e-06
-6.16239e-05
6.32857e-05
3.19781e-06
-4.85968e-06
-6.4621e-05
6.55147e-05
1.55548e-06
-2.4491e-06
-6.58184e-05
6.53696e-05
-1.36249e-06
1.81131e-06
-6.40129e-05
6.16766e-05
-6.61744e-06
8.95372e-06
-5.84914e-05
5.48735e-05
-1.73634e-05
2.09814e-05
-5.06104e-05
4.36717e-05
-3.3697e-05
4.06357e-05
-3.2506e-05
1.67678e-05
-1.88607e-05
3.47518e-05
5.55518e-06
-6.67987e-06
1.12469e-06
-2.89607e-06
4.67283e-06
7.1413e-06
-8.91806e-06
-6.34164e-06
7.95104e-06
6.44852e-06
-8.05791e-06
-9.55303e-06
1.1173e-05
6.48235e-06
-8.10232e-06
-1.28187e-05
1.44916e-05
6.69787e-06
-8.37083e-06
-1.6193e-05
1.79244e-05
6.93443e-06
-8.66586e-06
-1.96883e-05
2.14873e-05
7.20436e-06
-9.0033e-06
-2.33237e-05
2.51998e-05
7.51172e-06
-9.38781e-06
-2.71175e-05
2.90787e-05
7.84937e-06
-9.81055e-06
-3.10845e-05
3.31356e-05
8.20382e-06
-1.0255e-05
-3.52323e-05
3.73735e-05
8.55354e-06
-1.06947e-05
-3.95581e-05
4.17831e-05
8.87008e-06
-1.10951e-05
-4.40441e-05
4.63348e-05
9.09997e-06
-1.13907e-05
-4.86456e-05
5.09646e-05
9.16124e-06
-1.14803e-05
-5.32753e-05
5.55579e-05
8.92133e-06
-1.12039e-05
-5.77871e-05
5.99287e-05
8.1878e-06
-1.03294e-05
-6.19334e-05
6.37346e-05
6.58243e-06
-8.38362e-06
-6.52452e-05
6.63608e-05
3.43785e-06
-4.55342e-06
-6.69574e-05
6.68865e-05
-2.1071e-06
2.17798e-06
-6.59619e-05
6.39566e-05
-1.12938e-05
1.32989e-05
-6.06339e-05
5.58515e-05
-2.55121e-05
3.02946e-05
-5.00128e-05
4.41098e-05
-4.49958e-05
5.08901e-05
-3.75394e-05
2.44428e-05
-4.99091e-05
6.30329e-05
7.80949e-06
-8.94424e-06
1.13475e-06
-2.89448e-06
4.652e-06
1.06859e-05
-1.24435e-05
-6.30449e-06
7.90302e-06
9.66234e-06
-1.12609e-05
-9.49755e-06
1.1111e-05
9.7193e-06
-1.13327e-05
-1.27497e-05
1.4415e-05
1.00403e-05
-1.17056e-05
-1.61082e-05
1.78313e-05
1.03934e-05
-1.21166e-05
-1.9587e-05
2.13779e-05
1.07985e-05
-1.25894e-05
-2.32066e-05
2.50755e-05
1.12605e-05
-1.31294e-05
-2.69867e-05
2.89423e-05
1.17689e-05
-1.37245e-05
-3.09436e-05
3.2992e-05
1.23045e-05
-1.43528e-05
-3.50879e-05
3.72311e-05
1.28362e-05
-1.49794e-05
-3.94214e-05
4.16566e-05
1.33238e-05
-1.5559e-05
-4.39337e-05
4.62479e-05
1.3691e-05
-1.60052e-05
-4.85913e-05
5.09547e-05
1.3818e-05
-1.61814e-05
-5.33258e-05
5.56899e-05
1.3522e-05
-1.58862e-05
-5.80266e-05
6.0305e-05
1.25328e-05
-1.48111e-05
-6.24801e-05
6.44942e-05
1.02818e-05
-1.22959e-05
-6.6278e-05
6.77552e-05
5.83126e-06
-7.30847e-06
-6.88377e-05
6.94044e-05
-1.96268e-06
1.39601e-06
-6.92563e-05
6.81016e-05
-1.49103e-05
1.60651e-05
-6.55642e-05
6.12009e-05
-3.4903e-05
3.92663e-05
-5.45481e-05
4.5325e-05
-5.8795e-05
6.80225e-05
-3.44354e-05
2.11661e-05
-7.56891e-05
8.89583e-05
1.00842e-05
-1.12298e-05
1.14565e-06
-2.891e-06
4.62447e-06
1.41895e-05
-1.59229e-05
-6.25594e-06
7.84025e-06
1.28527e-05
-1.4437e-05
-9.425e-06
1.10299e-05
1.29421e-05
-1.4547e-05
-1.26597e-05
1.43156e-05
1.33663e-05
-1.50222e-05
-1.59991e-05
1.77126e-05
1.38349e-05
-1.55485e-05
-1.94591e-05
2.12415e-05
1.43759e-05
-1.61583e-05
-2.30626e-05
2.49249e-05
1.49947e-05
-1.68571e-05
-2.6831e-05
2.87832e-05
1.56779e-05
-1.76302e-05
-3.07835e-05
3.28337e-05
1.64014e-05
-1.84516e-05
-3.4935e-05
3.70879e-05
1.71266e-05
-1.92795e-05
-3.92931e-05
4.15498e-05
1.78041e-05
-2.00608e-05
-4.38564e-05
4.62093e-05
1.83378e-05
-2.06908e-05
-4.86029e-05
5.1032e-05
1.85765e-05
-2.10055e-05
-5.34893e-05
5.59651e-05
1.83045e-05
-2.07803e-05
-5.84417e-05
6.08914e-05
1.71736e-05
-1.96233e-05
-6.32776e-05
6.5562e-05
1.44405e-05
-1.67249e-05
-6.77066e-05
6.96768e-05
9.01807e-06
-1.09883e-05
-7.14309e-05
7.28778e-05
-4.18548e-07
-1.02841e-06
-7.38106e-05
7.38607e-05
-1.66716e-05
1.66215e-05
-7.2467e-05
6.88673e-05
-4.33229e-05
4.69226e-05
-6.21669e-05
5.15547e-05
-7.80406e-05
8.86529e-05
-3.69407e-05
2.02702e-05
-0.000103721
0.000120391
1.23823e-05
-1.35431e-05
1.1608e-06
-2.88783e-06
4.59295e-06
1.7643e-05
-1.93481e-05
-6.19974e-06
7.76771e-06
1.60134e-05
-1.75814e-05
-9.34147e-06
1.09369e-05
1.61474e-05
-1.77428e-05
-1.25571e-05
1.42029e-05
1.66732e-05
-1.83191e-05
-1.58764e-05
1.75803e-05
1.72574e-05
-1.89613e-05
-1.93177e-05
2.10918e-05
1.79368e-05
-1.97109e-05
-2.29055e-05
2.47617e-05
1.87168e-05
-2.0573e-05
-2.66632e-05
2.86126e-05
1.95815e-05
-2.1531e-05
-3.06124e-05
3.26647e-05
2.05035e-05
-2.25558e-05
-3.47714e-05
3.69337e-05
2.14379e-05
-2.36002e-05
-3.91535e-05
4.1431e-05
2.23288e-05
-2.46064e-05
-4.3766e-05
4.61568e-05
2.30633e-05
-2.5454e-05
-4.86006e-05
5.10973e-05
2.34684e-05
-2.59651e-05
-5.36455e-05
5.62389e-05
2.33146e-05
-2.5908e-05
-5.88608e-05
6.14871e-05
2.2161e-05
-2.47874e-05
-6.40988e-05
6.66919e-05
1.91579e-05
-2.1751e-05
-6.92704e-05
7.18383e-05
1.3246e-05
-1.5814e-05
-7.43955e-05
7.68988e-05
2.9895e-06
-5.49272e-06
-7.91708e-05
8.09221e-05
-1.57942e-05
1.40429e-05
-8.13655e-05
7.94222e-05
-4.98443e-05
5.17875e-05
-7.34079e-05
6.21392e-05
-9.9732e-05
0.000111001
-4.48415e-05
2.34902e-05
-0.000139239
0.00016059
1.47134e-05
-1.58935e-05
1.18013e-06
-2.8844e-06
4.55463e-06
2.10366e-05
-2.27068e-05
-6.13257e-06
7.68193e-06
1.91404e-05
-2.06897e-05
-9.24274e-06
1.08263e-05
1.93327e-05
-2.09163e-05
-1.2434e-05
1.40667e-05
1.99589e-05
-2.15916e-05
-1.57269e-05
1.74176e-05
2.06592e-05
-2.23499e-05
-1.91423e-05
2.09041e-05
2.14794e-05
-2.32413e-05
-2.27063e-05
2.45519e-05
2.24245e-05
-2.42701e-05
-2.64439e-05
2.83856e-05
2.34771e-05
-2.54187e-05
-3.03796e-05
3.24287e-05
2.4607e-05
-2.66562e-05
-3.45357e-05
3.67025e-05
2.5765e-05
-2.79319e-05
-3.89323e-05
4.1227e-05
2.68925e-05
-2.91872e-05
-4.35876e-05
4.60147e-05
2.78627e-05
-3.02898e-05
-4.85097e-05
5.10778e-05
2.84968e-05
-3.10649e-05
-5.37212e-05
5.64334e-05
2.85612e-05
-3.12734e-05
-5.91989e-05
6.20066e-05
2.75035e-05
-3.03112e-05
-6.48691e-05
6.78254e-05
2.45187e-05
-2.74751e-05
-7.09067e-05
7.41219e-05
1.87044e-05
-2.19196e-05
-7.75122e-05
8.11624e-05
8.55873e-06
-1.2209e-05
-8.50358e-05
8.90841e-05
-1.1197e-05
7.14339e-06
-9.21251e-05
9.29827e-05
-5.22841e-05
4.93454e-05
-8.84064e-05
7.64262e-05
-0.000122366
0.000134346
-5.59353e-05
2.96622e-05
-0.000184726
0.000210912
1.70839e-05
-1.82851e-05
1.20122e-06
-2.87646e-06
4.50538e-06
2.43571e-05
-2.5986e-05
-6.05107e-06
7.57899e-06
2.22286e-05
-2.37566e-05
-9.12347e-06
1.06913e-05
2.24925e-05
-2.40603e-05
-1.22824e-05
1.38977e-05
2.32161e-05
-2.48314e-05
-1.55403e-05
1.72136e-05
2.40323e-05
-2.57057e-05
-1.89212e-05
2.06666e-05
2.49952e-05
-2.67406e-05
-2.24532e-05
2.42842e-05
2.61088e-05
-2.79398e-05
-2.61631e-05
2.80934e-05
2.7355e-05
-2.92853e-05
-3.00784e-05
3.21216e-05
2.87026e-05
-3.07458e-05
-3.42263e-05
3.63957e-05
3.01002e-05
-3.22695e-05
-3.86341e-05
4.09447e-05
3.149e-05
-3.38006e-05
-4.333e-05
4.57935e-05
3.27352e-05
-3.51987e-05
-4.83417e-05
5.09835e-05
3.367e-05
-3.63117e-05
-5.37192e-05
5.65403e-05
3.4042e-05
-3.68631e-05
-5.94424e-05
6.24462e-05
3.3214e-05
-3.62178e-05
-6.55999e-05
6.89628e-05
3.06309e-05
-3.39937e-05
-7.25774e-05
7.64549e-05
2.54588e-05
-2.93363e-05
-8.06613e-05
8.54081e-05
1.64632e-05
-2.12112e-05
-9.04337e-05
8.55398e-05
-2.05512e-06
-2.7832e-06
-5.68506e-05
2.56372e-05
-3.06636e-05
2.73443e-06
-2.04322e-05
3.32704e-05
-8.22246e-05
9.95619e-06
-4.78502e-05
2.82391e-05
-0.000235798
0.000249969
-4.71542e-43
1.48802e-41
-6.82211e-41
5.75674e-41
-3.14467e-41
1.91586e-41
5.60913e-42
-4.34351e-43
2.42914e-43
2.33286e-44
-5.87493e-46
-5.5418e-46
2.56011e-47
-6.45831e-49
-1.94793e-48
2.25336e-50
-6.18742e-52
-3.69633e-51
1.70821e-53
-2.49283e-55
-8.3326e-54
5.28511e-57
-8.20237e-59
-1.92358e-57
1.72715e-60
-2.7201e-62
-7.77041e-61
5.49393e-64
-5.94132e-66
-3.66368e-64
1.04945e-67
-9.95456e-70
-7.85581e-68
1.49062e-71
-1.63821e-73
-1.2854e-71
2.08463e-75
-9.86936e-78
-6.23601e-75
1.17831e-79
-6.97824e-82
-1.85409e-79
6.50216e-84
-1.58343e-86
-2.39636e-83
1.66666e-88
-5.5932e-91
-4.93737e-88
2.80075e-93
-4.45301e-96
-1.00161e-91
1.31036e-98
-1.54647e-102
-5.96503e-98
7.70358e-105
-2.64048e-105
-1.53173e-103
-5.6967e-38
1.25301e-35
-1.81264e-35
6.20369e-37
-7.88161e-37
-2.16523e-39
1.08842e-36
4.99683e-37
-5.79772e-38
-2.7826e-40
1.10392e-37
1.93475e-39
-4.06606e-41
7.75654e-43
-1.91341e-40
1.50581e-42
-4.11383e-44
2.00298e-45
-3.81795e-43
1.28161e-45
-2.90045e-47
3.00617e-48
-4.8901e-46
7.18969e-49
-1.29507e-50
2.84312e-51
-3.87863e-49
2.8642e-52
-4.15849e-54
1.3744e-54
-1.6795e-52
8.00533e-56
-1.5994e-57
4.65231e-58
-6.88266e-56
2.69653e-59
-2.17387e-61
3.3145e-61
-2.33026e-59
2.70173e-63
-1.64368e-65
4.46966e-65
-5.17921e-63
5.38073e-68
2.65331e-69
7.22416e-69
-8.31182e-67
-9.0239e-71
9.48782e-73
2.20259e-72
-1.07954e-70
-5.71936e-75
1.28664e-76
7.55352e-77
-4.42882e-75
-9.97319e-79
4.61567e-81
4.17315e-81
-2.40869e-79
-1.43624e-83
2.2105e-85
5.10292e-86
-9.22009e-85
-3.20205e-88
6.91887e-91
3.42806e-92
4.38655e-89
-2.81786e-94
2.02762e-96
-2.21155e-96
1.63404e-94
-2.28682e-101
9.39873e-105
-7.46356e-103
1.20494e-101
-3.52605e-34
1.38449e-32
-1.79107e-32
6.34411e-33
-8.14297e-33
-7.35886e-35
1.59046e-32
4.47064e-33
-3.80077e-34
-1.27811e-35
1.1462e-33
1.15809e-35
-2.72597e-37
2.69872e-38
-2.23694e-36
8.68693e-39
-2.04497e-40
5.03326e-41
-4.01543e-39
5.52058e-42
-1.08499e-43
5.34429e-44
-3.61573e-42
2.49859e-45
-4.00931e-47
3.51705e-47
-2.13465e-45
8.39038e-49
-1.25981e-50
1.5326e-50
-8.58715e-49
2.29305e-52
-2.51795e-54
5.84789e-54
-2.94718e-52
4.09452e-56
-3.8572e-58
1.51322e-57
-7.26062e-56
4.94517e-60
-2.62889e-62
3.43781e-61
-1.5672e-59
3.36152e-65
4.17077e-66
5.44726e-65
-2.0359e-63
-5.32427e-68
1.4729e-69
4.26879e-69
-1.83895e-67
-1.65696e-71
1.07671e-73
3.51286e-73
-8.77221e-72
-4.64742e-76
1.0498e-77
6.43757e-78
-3.0798e-76
-3.65694e-80
6.63464e-83
-3.57787e-83
2.71241e-81
-5.51035e-86
5.49723e-88
-1.94682e-87
3.72578e-86
-6.74013e-92
1.17014e-94
-5.02715e-93
5.9547e-92
-3.57692e-99
1.10908e-102
-3.75233e-100
4.39236e-99
-1.64172e-30
8.0515e-29
-8.64065e-29
2.9698e-29
-3.4667e-29
-1.04906e-30
7.83611e-29
1.15562e-29
-6.85713e-31
-6.1027e-32
2.30139e-30
2.05866e-32
-5.50622e-34
1.32983e-34
-6.16451e-33
1.58834e-35
-3.44638e-37
2.40129e-37
-1.04513e-35
8.02192e-39
-1.39486e-40
1.89697e-40
-7.49261e-39
2.93648e-42
-4.35815e-44
9.98719e-44
-3.47618e-42
8.50107e-46
-1.13335e-47
3.86334e-47
-1.25849e-45
1.94585e-49
-1.84017e-51
1.22767e-50
-3.61634e-49
2.8176e-53
-2.27966e-55
2.81326e-54
-7.26638e-53
2.71009e-57
-9.43496e-60
4.86462e-58
-1.48651e-56
-6.02323e-62
3.86009e-63
7.50615e-62
-1.66086e-60
-3.77042e-65
1.05996e-66
4.72573e-66
-1.92288e-64
-1.14709e-68
4.73788e-71
5.36425e-70
-4.84223e-69
-1.46799e-73
2.39993e-75
3.9456e-75
-4.00806e-74
-4.47363e-78
2.28006e-80
-4.53324e-80
1.38525e-78
-1.26435e-83
1.41451e-85
-7.95216e-85
1.36001e-83
-6.08923e-90
1.37306e-93
-2.74141e-91
4.68431e-90
-2.55081e-97
8.06056e-101
-2.88004e-98
5.1363e-97
-4.88931e-27
2.13783e-25
-2.01757e-25
8.14366e-26
-8.7408e-26
-3.94837e-27
1.83548e-25
1.72494e-26
-7.67773e-28
-6.31162e-29
1.05212e-27
2.03742e-29
-4.96308e-31
2.53143e-31
-1.01474e-29
1.20929e-32
-2.46318e-34
3.68122e-34
-1.11289e-32
5.06834e-36
-7.88348e-38
2.41023e-37
-6.38182e-36
1.48053e-39
-1.9502e-41
9.91434e-41
-2.33781e-39
3.45761e-43
-4.25589e-45
3.26609e-44
-6.82192e-43
6.61396e-47
-4.32499e-49
8.68514e-48
-1.6444e-46
6.92609e-51
-9.25124e-53
1.53745e-51
-2.58305e-50
6.89674e-55
-2.4826e-58
4.00681e-55
-6.4392e-54
-2.94249e-59
1.8502e-60
3.3961e-59
-4.24027e-58
-2.69115e-62
1.05222e-64
4.5652e-63
-2.72108e-62
-5.034e-67
1.32676e-68
5.9333e-68
-6.09876e-67
-4.26376e-71
2.85392e-73
5.72596e-73
-5.59603e-72
-3.78049e-76
8.83968e-78
-1.6618e-77
2.43996e-76
-2.95661e-81
6.44863e-84
-1.35632e-82
3.26444e-81
-6.81581e-88
2.28808e-91
-3.95113e-89
9.14401e-88
-3.87071e-95
1.91839e-98
-4.59395e-96
1.10783e-94
-6.73021e-24
1.4447e-22
-1.41796e-22
1.08589e-22
-1.60397e-22
-7.39562e-24
2.20148e-22
2.67431e-23
-6.62862e-25
4.92728e-26
-6.63866e-24
1.06328e-26
-2.00034e-28
3.50008e-28
-8.28923e-27
4.12761e-30
-7.73411e-32
2.77908e-31
-4.97114e-30
1.43176e-33
-2.13274e-35
1.38972e-34
-2.34352e-33
3.64533e-37
-4.17693e-39
4.65646e-38
-7.6282e-37
6.62007e-41
-8.46246e-43
1.18264e-41
-1.73637e-40
1.14289e-44
-5.92116e-47
2.76178e-45
-4.19602e-44
8.49235e-49
-7.06905e-51
3.91684e-49
-4.84969e-48
2.45192e-53
3.50242e-55
8.53013e-53
-6.45216e-52
-4.49874e-57
1.67593e-58
5.32207e-57
-3.55845e-56
-9.00574e-61
5.32453e-63
2.30979e-61
-1.44304e-60
-5.29783e-65
5.79941e-66
8.51733e-66
-5.66557e-65
-2.94448e-68
2.03643e-71
8.86663e-71
-2.67334e-70
-4.96511e-74
1.89523e-75
-2.49131e-75
4.35195e-74
-6.76257e-79
1.65296e-81
-5.15854e-80
8.52415e-79
-1.65933e-85
7.82894e-89
-1.49356e-86
2.654e-85
-1.05355e-92
5.77956e-96
-1.93361e-93
3.70269e-92
-1.78822e-21
2.03674e-20
-1.80079e-20
2.21993e-20
-1.68931e-20
-3.43936e-21
3.07785e-20
1.67794e-21
-4.3623e-23
1.08866e-22
-4.6121e-22
7.96804e-25
-1.56095e-26
1.13613e-25
-6.56934e-25
3.54647e-28
-7.07679e-30
6.25299e-29
-5.79101e-28
1.31235e-31
-2.04292e-33
2.93336e-32
-2.80947e-31
3.49514e-35
-3.96563e-37
9.82469e-36
-9.51524e-35
5.74917e-39
-7.66216e-41
2.10345e-39
-2.05158e-38
9.28253e-43
-4.33644e-45
4.94994e-43
-5.0127e-42
4.58672e-47
-1.30994e-49
5.45232e-47
-4.48973e-46
-1.60825e-51
4.92926e-53
6.31295e-51
-3.83774e-50
-3.26573e-55
7.48655e-57
3.05189e-55
-1.80144e-54
-2.8697e-59
8.04286e-61
1.29044e-59
-6.26234e-59
-3.85795e-63
3.09132e-64
8.42513e-64
-2.89154e-63
-1.84489e-66
1.37617e-69
4.72128e-70
1.94548e-68
-6.86679e-72
6.81049e-73
-4.53204e-73
7.45142e-72
-1.16219e-75
1.42406e-79
-7.61299e-78
2.12208e-76
-4.93234e-83
3.34457e-86
-2.91985e-84
8.9362e-83
-4.72073e-90
1.68594e-93
-4.34726e-91
1.50145e-89
2.59852e-18
-2.06416e-19
-2.68199e-18
5.26641e-19
-8.44802e-20
-1.52221e-19
5.24268e-19
4.33563e-21
-1.31193e-22
7.27173e-22
-8.47098e-22
3.54106e-24
-1.46027e-25
1.30241e-24
-1.36329e-24
4.06526e-27
-9.95887e-29
2.4108e-27
-1.97146e-27
2.37652e-30
-4.23074e-32
1.86729e-30
-2.96259e-30
7.826e-34
-9.68246e-36
5.73906e-34
-1.43905e-33
1.51149e-37
-1.77583e-39
1.43446e-37
-4.11357e-37
2.16953e-41
-9.78421e-44
3.75412e-41
-9.98948e-41
5.44198e-46
9.38379e-48
3.94781e-45
-1.19595e-44
-2.4703e-49
3.78691e-51
5.82328e-49
-1.41186e-48
-2.09518e-53
3.78215e-55
2.15232e-53
-5.99285e-53
-1.478e-57
3.96904e-59
7.3165e-58
-2.12722e-57
-1.60182e-61
9.66785e-63
4.58415e-62
-8.46762e-62
-4.04518e-65
4.31979e-68
-1.16704e-67
1.67308e-66
-2.15484e-70
1.94693e-71
-4.06788e-71
2.38768e-70
-1.53039e-74
1.49411e-78
-7.87295e-76
2.13616e-75
-8.25507e-82
3.66784e-85
-3.91709e-82
1.41325e-81
-1.89036e-88
5.60668e-89
-2.82989e-88
1.68032e-87
2.08454e-05
-2.34367e-05
2.59128e-06
-6.08891e-06
9.41977e-06
2.75939e-05
-3.09248e-05
-1.26056e-05
1.57898e-05
2.52727e-05
-2.84569e-05
-1.90203e-05
2.23001e-05
2.5619e-05
-2.88988e-05
-2.5627e-05
2.90042e-05
2.64368e-05
-2.9814e-05
-3.24391e-05
3.59401e-05
2.73691e-05
-3.087e-05
-3.95152e-05
4.31723e-05
2.84767e-05
-3.21338e-05
-4.69192e-05
5.07636e-05
2.97625e-05
-3.36069e-05
-5.47137e-05
5.87781e-05
3.12089e-05
-3.52733e-05
-6.29654e-05
6.72844e-05
3.2785e-05
-3.7104e-05
-7.17444e-05
7.63548e-05
3.44392e-05
-3.90496e-05
-8.1128e-05
8.60731e-05
3.6118e-05
-4.10631e-05
-9.12007e-05
9.65292e-05
3.76796e-05
-4.3008e-05
-0.000102082
0.000107874
3.89883e-05
-4.47807e-05
-0.000113899
0.000120159
3.97334e-05
-4.59934e-05
-0.000126718
0.000133697
3.93286e-05
-4.63082e-05
-0.000141216
0.000149373
3.75596e-05
-4.57161e-05
-0.000158293
0.000167958
3.35802e-05
-4.32534e-05
-0.0001763
0.000159024
2.57619e-05
-2.56812e-05
-6.56633e-05
2.99598e-06
3.65976e-06
-4.24418e-07
-1.47517e-06
1.23974e-06
3.64688e-08
-6.95494e-09
-1.56224e-06
4.62216e-06
-4.91122e-06
1.08328e-06
-1.8151e-05
4.26692e-05
-0.000244563
0.00017695
2.60536e-05
-2.8688e-05
2.63435e-06
-5.96014e-06
9.07755e-06
3.41556e-05
-3.7273e-05
-1.20962e-05
1.51534e-05
3.15797e-05
-3.46368e-05
-1.8271e-05
2.14363e-05
3.21256e-05
-3.52909e-05
-2.46446e-05
2.79016e-05
3.31352e-05
-3.63922e-05
-3.12164e-05
3.45984e-05
3.43157e-05
-3.76976e-05
-3.8056e-05
4.15978e-05
3.57377e-05
-3.92795e-05
-4.52325e-05
4.8969e-05
3.74022e-05
-4.11387e-05
-5.28168e-05
5.67866e-05
3.92957e-05
-4.32654e-05
-6.08888e-05
6.51349e-05
4.13925e-05
-4.56386e-05
-6.95373e-05
7.41097e-05
4.36481e-05
-4.82205e-05
-7.88677e-05
8.3825e-05
4.60232e-05
-5.09805e-05
-8.90046e-05
9.44378e-05
4.83999e-05
-5.38331e-05
-0.000100142
0.000106117
5.06865e-05
-5.66614e-05
-0.000112389
0.000119061
5.24655e-05
-5.91376e-05
-0.000126265
0.000134093
5.3757e-05
-6.15845e-05
-0.00014259
0.000151168
5.45452e-05
-6.31332e-05
-0.000150781
7.77891e-05
4.72964e-05
-2.47462e-05
-5.82464e-06
3.67681e-07
5.27476e-06
-3.10966e-07
-7.06561e-08
2.02968e-08
2.82988e-08
-2.20086e-09
-7.52426e-09
5.7514e-09
-1.91864e-09
4.46902e-10
-1.52231e-08
1.22827e-07
-1.79157e-07
2.67889e-08
-1.29387e-06
1.3835e-05
-3.37497e-05
1.53606e-05
3.13318e-05
-3.39756e-05
2.64385e-06
-5.77083e-06
8.64594e-06
4.02712e-05
-4.31463e-05
-1.14837e-05
1.43952e-05
3.76237e-05
-4.05351e-05
-1.73707e-05
2.03884e-05
3.83865e-05
-4.14042e-05
-2.34454e-05
2.655e-05
3.95768e-05
-4.26814e-05
-2.97125e-05
3.29422e-05
4.10076e-05
-4.42374e-05
-3.6248e-05
3.96387e-05
4.27503e-05
-4.6141e-05
-4.31238e-05
4.67132e-05
4.48068e-05
-4.83962e-05
-5.04175e-05
5.42487e-05
4.71717e-05
-5.10029e-05
-5.82189e-05
6.23413e-05
4.98297e-05
-5.39521e-05
-6.6631e-05
7.11037e-05
5.27516e-05
-5.72243e-05
-7.5776e-05
8.06695e-05
5.59162e-05
-6.08097e-05
-8.58178e-05
9.12403e-05
5.92792e-05
-6.47017e-05
-9.69334e-05
0.00010294
6.26655e-05
-6.8672e-05
-0.000109378
0.000116346
6.59902e-05
-7.2958e-05
-0.000123874
0.000131614
6.96258e-05
-7.73663e-05
-0.000130104
5.59922e-05
6.08745e-05
-3.49732e-05
-3.97003e-06
3.90704e-07
3.58943e-06
-4.01995e-07
-1.02717e-08
1.89052e-09
1.34198e-09
2.80113e-10
-3.02148e-10
3.5652e-11
-1.94812e-11
4.3522e-11
1.49807e-11
-2.58184e-11
-1.19568e-10
2.92497e-11
-9.94761e-13
1.9643e-11
-3.13958e-09
8.65087e-10
-1.29431e-07
4.64096e-06
-6.5803e-06
1.98641e-06
3.66097e-05
-3.92235e-05
2.61382e-06
-5.50863e-06
8.13068e-06
4.58957e-05
-4.85177e-05
-1.07777e-05
1.3521e-05
4.33653e-05
-4.61086e-05
-1.63239e-05
1.91618e-05
4.43359e-05
-4.71739e-05
-2.20359e-05
2.49565e-05
4.56978e-05
-4.86184e-05
-2.79339e-05
3.0977e-05
4.73781e-05
-5.04213e-05
-3.40947e-05
3.7296e-05
4.94419e-05
-5.26432e-05
-4.05908e-05
4.39897e-05
5.18959e-05
-5.52949e-05
-4.75042e-05
5.11468e-05
5.47463e-05
-5.8389e-05
-5.49308e-05
5.88703e-05
5.79907e-05
-6.19302e-05
-6.2982e-05
6.72806e-05
6.16197e-05
-6.59183e-05
-7.17851e-05
7.65268e-05
6.56387e-05
-7.03804e-05
-8.15268e-05
8.6778e-05
7.00586e-05
-7.53097e-05
-9.23219e-05
9.82713e-05
7.46646e-05
-8.0614e-05
-0.000104651
0.000111458
7.9921e-05
-8.67276e-05
-0.000116983
8.28359e-05
7.95714e-05
-7.17666e-05
-6.25966e-06
6.01336e-07
6.16174e-06
-8.76069e-07
-9.07891e-09
-3.32189e-11
4.0058e-09
9.08936e-10
-6.11554e-12
-2.73443e-11
-8.57727e-11
3.93666e-11
9.66014e-12
-3.39737e-12
-1.26271e-11
2.39039e-12
2.35283e-12
-1.90502e-12
-6.58082e-12
2.10101e-12
-2.36391e-12
4.23895e-11
-2.39927e-10
1.02807e-10
-7.2419e-09
3.3247e-07
-4.15716e-07
8.31047e-08
4.18065e-05
-4.43477e-05
2.54121e-06
-5.17412e-06
7.53871e-06
5.10113e-05
-5.33759e-05
-9.98514e-06
1.25361e-05
4.87588e-05
-5.13097e-05
-1.51363e-05
1.77644e-05
4.99104e-05
-5.25385e-05
-2.04258e-05
2.31314e-05
5.14353e-05
-5.4141e-05
-2.5891e-05
2.87125e-05
5.3358e-05
-5.61795e-05
-3.16046e-05
3.45764e-05
5.57347e-05
-5.87066e-05
-3.76381e-05
4.08005e-05
5.85813e-05
-6.17437e-05
-4.40754e-05
4.74758e-05
6.19173e-05
-6.53177e-05
-5.10152e-05
5.47086e-05
6.57546e-05
-6.9448e-05
-5.85722e-05
6.26183e-05
7.01003e-05
-7.41464e-05
-6.68736e-05
7.13627e-05
7.50096e-05
-7.94987e-05
-7.6074e-05
8.10436e-05
8.0427e-05
-8.53966e-05
-8.63675e-05
9.20115e-05
8.64603e-05
-9.21043e-05
-9.79576e-05
9.7774e-05
9.28408e-05
-9.26685e-05
-2.74786e-05
1.16344e-06
2.02339e-05
-3.09452e-06
-8.14441e-08
-6.89688e-10
7.4633e-08
2.03785e-09
8.85022e-11
-3.55328e-11
-1.64846e-10
5.22382e-11
5.85558e-12
-1.15672e-12
-6.74667e-12
9.77598e-13
3.09531e-13
-1.24224e-13
-5.31357e-13
2.64391e-13
1.12077e-13
-9.67028e-14
-4.95663e-13
4.07887e-13
2.0918e-13
5.50559e-12
-2.06613e-11
1.08532e-11
-6.46321e-11
1.44371e-08
-1.87134e-08
4.0545e-09
4.68367e-05
-4.92632e-05
2.42647e-06
-4.77226e-06
6.87823e-06
5.56111e-05
-5.77171e-05
-9.11202e-06
1.14457e-05
5.37551e-05
-5.60888e-05
-1.38153e-05
1.62061e-05
5.5051e-05
-5.74418e-05
-1.86268e-05
2.10877e-05
5.67278e-05
-5.91887e-05
-2.35969e-05
2.61617e-05
5.88769e-05
-6.14417e-05
-2.87902e-05
3.14916e-05
6.15481e-05
-6.42495e-05
-3.42757e-05
3.71534e-05
6.47698e-05
-6.76475e-05
-4.0137e-05
4.32393e-05
6.8576e-05
-7.16784e-05
-4.64744e-05
4.98577e-05
7.29941e-05
-7.63773e-05
-5.34025e-05
5.71245e-05
7.80384e-05
-8.17604e-05
-6.10519e-05
6.51732e-05
8.38175e-05
-8.79389e-05
-6.95119e-05
7.41495e-05
9.02119e-05
-9.48495e-05
-7.89739e-05
8.39185e-05
9.74365e-05
-0.000102381
-7.87799e-05
9.03217e-06
8.16842e-05
-3.42202e-05
-5.0455e-07
6.5731e-09
5.46807e-07
-6.35629e-08
5.54096e-11
-6.94767e-11
-2.32678e-10
1.75467e-10
6.7161e-12
-7.72051e-13
-7.54836e-12
1.02058e-12
1.1603e-13
-5.20989e-14
-1.91532e-13
1.06108e-13
3.91927e-14
-3.10615e-14
-1.17153e-13
1.1702e-13
2.63103e-14
-1.97647e-14
-1.09551e-13
1.06393e-13
4.44928e-15
8.93119e-14
-2.33235e-13
2.23745e-13
-1.17628e-12
5.96178e-10
-7.48326e-10
1.4671e-10
5.16167e-05
-5.38871e-05
2.27035e-06
-4.31294e-06
6.16187e-06
5.96942e-05
-6.15431e-05
-8.16998e-06
1.02634e-05
5.8305e-05
-6.03984e-05
-1.23786e-05
1.4509e-05
5.97051e-05
-6.18356e-05
-1.66645e-05
1.88534e-05
6.15168e-05
-6.37057e-05
-2.10821e-05
2.3357e-05
6.38656e-05
-6.61405e-05
-2.56855e-05
2.80761e-05
6.68004e-05
-6.9191e-05
-3.05384e-05
3.30832e-05
7.03649e-05
-7.29097e-05
-3.57228e-05
3.84705e-05
7.46106e-05
-7.73583e-05
-4.13422e-05
4.43517e-05
7.95818e-05
-8.25914e-05
-4.75146e-05
5.08535e-05
8.5298e-05
-8.86369e-05
-5.43667e-05
5.80665e-05
9.18469e-05
-9.55467e-05
-6.20252e-05
6.60562e-05
9.92341e-05
-0.000103265
-7.00197e-05
6.30333e-05
0.000105436
-9.84449e-05
-4.52957e-06
2.48608e-07
5.22183e-06
-9.93339e-07
1.15486e-09
-4.06515e-10
-2.0518e-09
1.1629e-09
2.21628e-11
-1.33994e-12
-2.43947e-11
3.03862e-12
1.14665e-13
-2.78385e-14
-1.62394e-13
6.5437e-14
2.02314e-14
-2.23273e-14
-6.86333e-14
6.42231e-14
2.11447e-14
-1.65234e-14
-1.05026e-13
7.4117e-14
1.15849e-14
-7.31189e-15
-8.57653e-14
5.06347e-14
2.68239e-15
-1.19964e-16
-3.53062e-14
2.57528e-14
-5.0645e-14
1.05379e-11
-1.38696e-11
3.35444e-12
5.60659e-05
-5.81448e-05
2.07889e-06
-3.80734e-06
5.40307e-06
6.32646e-05
-6.48603e-05
-7.17256e-06
9.00607e-06
6.23637e-05
-6.41972e-05
-1.08486e-05
1.27003e-05
6.38283e-05
-6.568e-05
-1.45699e-05
1.64631e-05
6.57492e-05
-6.76424e-05
-1.83846e-05
2.03392e-05
6.82585e-05
-7.02131e-05
-2.23333e-05
2.43739e-05
7.1411e-05
-7.34517e-05
-2.64701e-05
2.8632e-05
7.52691e-05
-7.7431e-05
-3.0872e-05
3.32046e-05
7.99059e-05
-8.22385e-05
-3.5649e-05
3.82174e-05
8.53885e-05
-8.79569e-05
-4.09471e-05
4.38376e-05
9.17604e-05
-9.46509e-05
-4.6909e-05
5.02675e-05
9.90637e-05
-0.000102422
-5.3581e-05
5.65199e-05
0.000106815
-0.000109754
-5.03988e-05
3.15789e-06
7.33135e-05
-2.7426e-05
-1.52688e-07
-1.07619e-09
1.64323e-07
-1.08787e-08
1.58062e-10
-6.11307e-12
-1.72391e-10
1.94696e-11
3.02853e-13
-2.96336e-14
-3.4442e-13
6.12251e-14
1.68141e-14
-1.40062e-14
-4.65415e-14
4.34423e-14
1.27138e-14
-9.33382e-15
-5.36631e-14
3.79761e-14
6.20755e-15
-3.89653e-15
-3.85891e-14
1.74245e-14
2.03875e-15
-8.3262e-16
-2.30843e-14
8.67178e-15
9.81662e-17
2.92056e-16
-1.22074e-14
4.18418e-15
-9.0115e-16
4.20273e-14
-5.05037e-14
8.18029e-15
6.01166e-05
-6.19752e-05
1.85868e-06
-3.27014e-06
4.61779e-06
6.63313e-05
-6.76789e-05
-6.13753e-06
7.69708e-06
6.58951e-05
-6.74546e-05
-9.25513e-06
1.08151e-05
6.7387e-05
-6.89469e-05
-1.23835e-05
1.39626e-05
6.93805e-05
-7.09596e-05
-1.55553e-05
1.7164e-05
7.19975e-05
-7.36063e-05
-1.87935e-05
2.04486e-05
7.53034e-05
-7.69585e-05
-2.21367e-05
2.38668e-05
7.93824e-05
-8.11125e-05
-2.56511e-05
2.75074e-05
8.43398e-05
-8.61961e-05
-2.94552e-05
3.15206e-05
9.02815e-05
-9.23469e-05
-3.37555e-05
3.61302e-05
9.72927e-05
-9.96673e-05
-3.88438e-05
4.16974e-05
0.000105581
-0.000108435
-4.40178e-05
3.85529e-05
0.000110898
-0.000105403
-2.69209e-06
9.79621e-08
3.23301e-06
-6.26461e-07
8.15095e-10
-5.44444e-11
-9.94352e-10
2.32399e-10
1.72456e-12
-7.1271e-14
-1.85903e-12
1.88446e-13
1.46724e-14
-1.28725e-14
-3.21889e-14
2.89749e-14
1.16809e-14
-7.63989e-15
-3.8203e-14
2.88504e-14
4.81524e-15
-2.60645e-15
-2.13825e-14
9.76289e-15
1.12254e-15
-4.64059e-16
-7.22822e-15
2.53887e-15
1.70404e-16
-3.86613e-17
-2.61829e-15
6.19521e-16
-1.12693e-17
2.91183e-17
-9.46243e-16
1.66704e-16
-4.31943e-17
6.18856e-16
-5.96727e-16
1.74817e-17
6.37162e-05
-6.5336e-05
1.61979e-06
-2.71697e-06
3.82459e-06
6.89051e-05
-7.00127e-05
-5.08764e-06
6.36764e-06
6.88743e-05
-7.01543e-05
-7.63792e-06
8.90185e-06
7.03585e-05
-7.16224e-05
-1.01628e-05
1.14201e-05
7.23775e-05
-7.36348e-05
-1.26748e-05
1.3927e-05
7.50364e-05
-7.62886e-05
-1.51784e-05
1.64308e-05
7.84126e-05
-7.9665e-05
-1.7688e-05
1.89543e-05
8.26146e-05
-8.38808e-05
-2.02345e-05
2.15371e-05
8.77926e-05
-8.90952e-05
-2.28601e-05
2.42388e-05
9.41174e-05
-9.5496e-05
-2.56319e-05
2.71701e-05
0.000101708
-0.000103245
-2.88558e-05
3.08229e-05
0.000110857
-0.000112819
-2.70621e-05
1.89767e-06
6.28102e-05
-1.77868e-05
-5.22249e-08
-6.65449e-10
5.52327e-08
-2.27432e-09
1.5035e-11
-4.61872e-13
-1.58753e-11
1.21397e-12
2.13414e-14
-9.25698e-15
-3.37919e-14
2.00856e-14
9.04731e-15
-7.53134e-15
-2.4732e-14
1.80564e-14
5.27189e-15
-2.46257e-15
-1.73815e-14
8.4906e-15
8.78935e-16
-3.17491e-16
-3.75166e-15
1.26426e-15
9.9909e-17
-2.80535e-17
-7.0689e-16
1.60445e-16
7.34354e-18
-1.16224e-18
-1.21146e-16
2.13597e-17
-4.78625e-19
7.91459e-19
-2.62502e-17
3.86134e-18
-6.1564e-19
3.44045e-19
-1.20131e-18
9.24715e-19
6.6831e-05
-6.81976e-05
1.36667e-06
-2.16517e-06
3.04941e-06
7.10062e-05
-7.18904e-05
-4.06148e-06
5.07157e-06
7.12974e-05
-7.23075e-05
-6.0631e-06
7.03924e-06
7.27414e-05
-7.37175e-05
-7.99981e-06
8.94179e-06
7.47345e-05
-7.56764e-05
-9.86123e-06
1.07496e-05
7.73643e-05
-7.82526e-05
-1.15998e-05
1.24009e-05
8.07095e-05
-8.15104e-05
-1.31383e-05
1.37887e-05
8.48816e-05
-8.55315e-05
-1.43205e-05
1.46971e-05
9.00121e-05
-9.03864e-05
-1.49018e-05
1.49668e-05
9.62975e-05
-9.63558e-05
-1.48933e-05
1.49636e-05
0.00010405
-0.000104083
-1.50093e-05
1.4561e-05
0.000113859
-0.00011313
-1.08079e-06
1.8335e-08
1.29448e-06
-2.22434e-07
8.51567e-12
-8.9541e-13
-7.61279e-12
2.19958e-15
5.9301e-14
-2.59385e-14
-5.08534e-14
4.38759e-14
1.28277e-14
-7.16459e-15
-2.17852e-14
1.77717e-14
4.62366e-15
-2.40858e-15
-1.12017e-14
6.88589e-15
1.06362e-15
-3.76142e-16
-3.45424e-15
1.22647e-15
9.32571e-17
-2.10521e-17
-3.80463e-16
1.01485e-16
4.98885e-18
-1.15596e-18
-3.2682e-17
6.44679e-18
2.5006e-19
-3.83342e-20
-3.57145e-18
5.73048e-19
-5.86183e-21
1.16716e-20
-5.31052e-19
6.86539e-20
-8.22719e-21
5.33204e-21
-4.9998e-20
6.64728e-21
6.94305e-05
-7.05156e-05
1.09898e-06
-1.60982e-06
2.25595e-06
7.26645e-05
-7.33089e-05
-3.01714e-06
3.73768e-06
7.31825e-05
-7.3901e-05
-4.42552e-06
5.07303e-06
7.45432e-05
-7.51882e-05
-5.67984e-06
6.2258e-06
7.64425e-05
-7.6983e-05
-6.69454e-06
7.05234e-06
7.89078e-05
-7.92527e-05
-7.28671e-06
7.3711e-06
8.19803e-05
-8.20397e-05
-7.29911e-06
7.08475e-06
8.57079e-05
-8.5448e-05
-6.76792e-06
6.44503e-06
9.01394e-05
-8.9624e-05
-6.36951e-06
6.69071e-06
9.58655e-05
-9.52638e-05
-7.71973e-06
7.96929e-06
0.000103946
-6.58936e-05
-6.42526e-06
9.69947e-07
8.22918e-05
-2.89931e-06
9.78307e-09
-4.12183e-14
6.55226e-08
-7.53103e-08
4.23458e-14
-5.04692e-14
-3.52673e-14
4.91329e-14
4.85954e-14
-3.62862e-14
-7.54802e-14
8.9282e-14