/*--------------------------------*- C++ -*----------------------------------*\
| =========                 |                                                 |
| \\      /  F ield         | OpenFOAM: The Open Source CFD Toolbox           |
|  \\    /   O peration     | Version:  v1912                                 |
|   \\  /    A nd           | Website:  www.openfoam.com                      |
|    \\/     M anipulation  |                                                 |
\*---------------------------------------------------------------------------*/
FoamFile
{
    version     2.0;
    format      ascii;
    class       volScalarField;
    location    "0.15";
    object      alpha.water;
}
// * * * * * * * * * * * * * * * * * * * * * * * * * * * * * * * * * * * * * //

dimensions      [0 0 0 0 0 0 0];


internalField   nonuniform List<scalar> 
9072
(
1
1
1
1
1
1
1
1
1
1
1
1
1
1
1
1
1
1
1
1
1
0.999997
0.273292
1
1
1
1
1
1
1
1
1
1
1
1
1
1
1
1
1
1
1
1
0.999999
0.999997
0.997597
1
1
1
1
1
1
1
1
1
1
1
1
1
1
1
1
1
1
1
0.999999
0.999999
0.999913
0.999246
1
1
1
1
1
1
1
1
1
1
1
1
1
1
1
1
1
1
1
1
1
0.999969
0.999996
1
1
1
1
1
1
1
1
1
1
1
1
1
1
1
1
1
1
1
1
1
1
1
1
1
1
1
1
1
1
1
1
1
1
1
1
1
1
1
1
1
1
1
0.999993
1
1
1
1
1
1
1
1
1
1
1
1
1
1
1
1
1
1
1
1
1
0.999995
0.99998
0.999999
0.999892
1
1
1
1
1
1
1
1
1
1
1
1
1
1
1
1
1
1
0.999996
0.968391
0.465957
0.30428
0.991268
1.64211e-36
1.5662e-35
5.40711e-37
1.81328e-39
1.79944e-42
1.51005e-45
1.09121e-48
4.55351e-52
2.04659e-55
7.99754e-59
2.44272e-62
5.19735e-66
8.37627e-70
9.30978e-74
7.55102e-78
3.37743e-82
8.3625e-87
7.99745e-92
1.48665e-97
7.27608e-31
1.61351e-31
5.69037e-32
1.61694e-34
1.28723e-37
1.32382e-40
9.93436e-44
5.91954e-47
2.61576e-50
1.63482e-53
3.78023e-57
8.52701e-61
2.17831e-64
1.52738e-68
1.29289e-72
3.8843e-77
5.94734e-82
1.20492e-87
6.44211e-96
4.28936e-28
1.4361e-27
4.43197e-28
9.18236e-31
7.20341e-34
5.67368e-37
3.52816e-40
1.77008e-43
7.81921e-47
2.56629e-50
7.55487e-54
1.59348e-57
1.96059e-61
2.47007e-65
1.18164e-69
3.85666e-74
1.68093e-79
2.23023e-85
1.64574e-94
1.60253e-24
5.21771e-24
9.4517e-25
1.5039e-27
1.28547e-30
8.25938e-34
4.27183e-37
1.88044e-40
7.11111e-44
1.96823e-47
5.12843e-51
9.8332e-55
1.1622e-58
1.26437e-62
3.48121e-67
8.44542e-72
3.67562e-77
6.04268e-85
1.29754e-92
2.64335e-21
1.02944e-20
1.15294e-21
1.34297e-24
9.48134e-28
5.28242e-31
2.23244e-34
8.17263e-38
2.65974e-41
5.7483e-45
1.99901e-48
2.15943e-52
2.94234e-56
1.19624e-60
6.52215e-65
9.30146e-70
5.54363e-75
1.64762e-83
1.41148e-90
1.11036e-18
1.24936e-17
1.4714e-18
6.70155e-22
3.26869e-25
1.55486e-28
5.85994e-32
1.71712e-35
5.30223e-39
9.13936e-43
2.13386e-46
1.8487e-50
1.24636e-54
1.19496e-58
8.6889e-63
1.09737e-67
1.14696e-72
1.51339e-81
2.33301e-88
1.24525e-16
1.96647e-15
8.19846e-17
4.74814e-20
2.85025e-23
1.5109e-26
6.1989e-30
1.7162e-33
5.37426e-37
7.78884e-41
1.18125e-44
8.41514e-49
5.65464e-53
7.36315e-57
5.06288e-61
1.46902e-65
1.63211e-70
2.79101e-79
5.26404e-86
9.46689e-15
3.43808e-14
1.57782e-16
1.80568e-19
3.13478e-22
2.85878e-25
1.54186e-28
5.38773e-32
1.76539e-35
2.99547e-39
5.39991e-43
3.62794e-47
2.33725e-51
2.58048e-55
1.32388e-59
4.13585e-64
6.11756e-70
1.07678e-77
9.64493e-82
1
1
1
1
1
1
1
1
1
1
1
1
1
1
1
1
1
0.99997
0.978494
0.177153
0.000886471
0.00314743
0.878926
1
1
1
1
1
1
1
1
1
1
1
1
1
1
1
1
0.999946
0.805641
0.00272165
0.000118282
1.60684e-05
0.000172728
0.0109788
1
1
1
1
1
1
1
1
1
1
1
1
1
1
1
0.999988
0.757336
0.00233148
4.13637e-05
1.53545e-06
4.7971e-07
7.76029e-06
0.000357961
1
1
1
1
1
1
1
1
1
1
1
1
1
1
1
0.945241
0.00302707
3.22453e-05
5.30853e-07
2.68004e-08
1.65563e-08
3.28224e-07
2.29948e-05
1
1
1
1
1
1
1
1
1
1
1
1
1
1
0.999865
0.0343192
4.10047e-05
4.35549e-07
7.82101e-09
1.506e-09
1.17998e-09
1.10517e-08
9.00548e-07
1
1
1
1
1
1
1
1
1
1
1
1
1
0.999997
0.442249
0.000154796
5.38522e-07
5.65253e-09
7.60628e-10
1.08372e-09
9.32337e-10
5.0557e-10
4.2181e-09
1
1
1
1
1
1
1
1
1
1
1
1
1
0.999782
0.00134066
1.30811e-06
5.3737e-09
5.51782e-10
6.62363e-10
8.41714e-10
5.89635e-10
2.58212e-10
8.91319e-11
1
1
1
1
1
1
1
1
1
1
1
1
0.999998
0.317204
1.34951e-05
-3.7003e-10
4.25802e-10
4.84502e-10
4.75348e-10
2.67506e-10
1.4188e-10
6.91773e-11
3.14157e-12
1
1
1
1
1
1
1
1
1
1
1
1
0.999733
0.00044163
6.27737e-08
3.26606e-10
3.6077e-10
3.82488e-10
1.65651e-10
4.91738e-11
1.43303e-11
4.30299e-12
3.75455e-14
1
1
1
1
1
1
1
1
1
0.999999
0.999997
0.999976
0.216375
8.5408e-07
2.96248e-10
2.37894e-10
2.68669e-10
1.52673e-10
2.75577e-11
4.25805e-12
6.22549e-13
1.17078e-13
1.29975e-14
0.999999
1
1
1
1
0.999999
0.999998
0.999996
0.999987
0.999957
0.999815
0.998587
4.61769e-05
7.12577e-10
4.88727e-10
2.76429e-10
1.20186e-10
2.85498e-11
2.75543e-12
2.00643e-13
1.91855e-14
2.40941e-15
2.37329e-16
0.999909
0.999988
0.999985
0.99998
0.999967
0.99993
0.999845
0.999665
0.999001
0.996407
0.876837
0.286426
-4.30804e-08
1.04458e-09
1.30026e-09
1.00045e-10
4.61003e-11
3.46428e-12
1.72398e-13
8.29135e-15
5.05431e-16
3.98935e-17
3.13514e-18
0.783869
0.998582
0.998296
0.99517
0.973111
0.904006
0.756494
0.499724
0.202685
0.0189546
5.51711e-09
4.72755e-09
0.00998491
3.18468e-10
2.24068e-09
5.1851e-11
9.88534e-12
3.49432e-13
8.62342e-15
2.90767e-16
1.13919e-17
5.62987e-19
3.05283e-20
-1.57538e-19
0.0485627
0.0243413
1.42383e-18
5.9353e-44
-1.72198e-50
-6.38245e-11
-6.58504e-10
-6.71425e-10
-7.14686e-16
3.55164e-09
4.72755e-09
0.0136932
1.18931e-11
1.96837e-09
2.36487e-11
1.37613e-12
2.56043e-14
4.07461e-16
8.41828e-18
2.17807e-19
6.88719e-21
2.59163e-22
-2.71212e-19
-4.54605e-18
-4.32485e-15
-6.74767e-13
-2.93644e-12
-8.04129e-11
-1.04907e-09
-3.23325e-09
-1.0258e-09
7.19635e-10
5.05753e-08
5.35989e-09
0.0135991
7.13859e-13
1.82387e-10
5.97465e-12
1.78624e-13
1.44587e-15
1.53058e-17
2.00141e-19
3.44625e-21
7.29732e-23
2.00819e-24
-5.08438e-20
-1.28095e-17
-8.27776e-15
-9.0818e-13
-6.13319e-12
-1.47426e-10
-1.34761e-09
-2.49823e-09
-3.55759e-11
4.75452e-08
4.45669e-05
6.33926e-08
0.00319799
2.1458e-13
7.9181e-12
1.56545e-12
1.52602e-14
6.6308e-17
4.10068e-19
3.59598e-21
4.30586e-23
6.49219e-25
1.24868e-26
-2.49251e-20
-3.33202e-17
-1.11274e-14
-6.12723e-13
-1.04463e-11
-1.73817e-10
-8.72172e-10
-2.65749e-10
3.29173e-08
0.000105199
0.000778257
1.31156e-06
0.00145976
3.28394e-07
2.8619e-12
2.90719e-13
7.80676e-16
1.96683e-18
7.39088e-21
4.54595e-23
4.03217e-25
4.58075e-27
6.45662e-29
-1.06164e-20
-3.2926e-17
-6.57723e-15
-3.30996e-13
-8.66373e-12
-8.79379e-11
-2.09853e-10
-8.48667e-26
4.72631e-09
6.2331e-06
0.000775843
0.000266426
0.00166559
-1.00324e-13
6.1697e-13
3.99354e-14
2.4921e-17
3.12864e-20
8.10476e-23
3.86373e-25
2.73065e-27
2.46291e-29
2.61331e-31
-7.6227e-22
-4.90742e-18
-1.13127e-15
-7.49807e-14
-1.6433e-12
-1.11236e-11
-1.54511e-11
2.73209e-11
1.98955e-10
1.86656e-09
4.51918e-08
5.2787e-05
2.74405e-07
-6.85892e-13
4.91295e-14
4.79639e-15
3.3388e-19
2.30518e-22
4.98102e-25
2.11237e-27
1.28628e-29
9.67091e-32
7.98985e-34
-3.59868e-28
-1.60304e-25
-3.32281e-24
-4.47688e-32
-9.77649e-28
-7.46049e-25
8.82109e-15
2.54203e-11
2.44635e-09
2.12554e-08
2.51267e-07
7.83737e-08
1.00944e-10
-4.01565e-16
3.01883e-15
5.70953e-17
8.07724e-22
6.16227e-25
1.59501e-27
6.95953e-30
3.93587e-32
2.60553e-34
1.75198e-36
-4.17678e-29
-4.09724e-26
-1.01233e-24
-4.47087e-35
7.47571e-23
9.93316e-20
7.59348e-17
7.80719e-14
1.97638e-10
1.75778e-09
2.94284e-10
4.52875e-11
2.10616e-12
2.21742e-18
6.52864e-18
4.04071e-22
1.15054e-25
1.98891e-28
1.99304e-30
1.15272e-32
6.902e-35
4.48403e-37
2.61718e-39
-2.53348e-33
-1.7217e-27
-4.79636e-26
-8.11157e-30
2.28775e-24
-2.67363e-21
4.96309e-18
1.53671e-14
8.54912e-12
4.16887e-11
3.84318e-11
4.53294e-12
3.32988e-14
-1.75727e-17
-3.88746e-18
-4.58015e-31
8.34646e-29
-3.24781e-32
5.15417e-34
5.07622e-36
5.56401e-38
4.28215e-40
2.36212e-42
-9.07846e-37
-3.53664e-34
0
-7.15266e-31
1.71742e-27
2.09935e-24
2.77121e-21
9.85741e-17
2.17832e-14
5.90646e-14
4.0292e-14
1.69824e-15
8.83397e-18
-5.92972e-18
-1.3469e-18
-6.34349e-35
4.13994e-32
-5.9913e-35
2.64705e-37
1.83023e-39
1.19853e-41
2.0334e-43
1.23766e-45
-6.45433e-40
-1.1421e-35
-2.82355e-34
-3.62224e-35
2.6433e-32
5.91845e-29
6.18964e-26
6.72757e-22
1.95711e-18
2.79686e-17
4.80975e-17
1.15476e-17
-1.75389e-19
-6.82419e-19
-1.64978e-19
-2.72012e-41
7.37307e-36
-4.67731e-38
8.06529e-41
5.10506e-43
5.50972e-45
3.70538e-47
1.96228e-49
-1.41143e-45
-7.0251e-42
-4.02482e-39
-9.19367e-37
-5.73707e-35
-3.90741e-40
-2.82644e-39
1.31029e-29
1.0321e-24
3.73651e-22
2.3909e-21
1.34851e-21
-4.52203e-21
-7.35793e-21
-3.14662e-21
-2.97648e-47
1.56807e-40
-1.11361e-41
1.07803e-44
7.37959e-47
1.17803e-48
9.31889e-51
4.84332e-53
-1.2479e-46
-3.57326e-42
-3.64071e-39
-1.5552e-36
-3.28407e-34
-3.68314e-32
-2.29872e-30
-8.24031e-29
-1.73298e-27
-2.16978e-26
-1.62821e-25
-7.22106e-25
-1.76556e-24
-1.92553e-24
-4.89131e-25
-1.11579e-31
-1.08209e-39
-4.46016e-40
9.11296e-49
1.63518e-50
1.2471e-52
1.70411e-54
7.56807e-57
-1.08509e-53
-1.16896e-46
-5.98494e-44
-1.15162e-41
-1.11633e-39
-6.32573e-38
-2.29067e-36
-5.60807e-35
-9.59872e-34
-1.16523e-32
-9.9723e-32
-5.82408e-31
-2.15146e-30
-4.25491e-30
-2.93498e-30
-1.38054e-33
-1.30881e-40
-4.17739e-41
6.58916e-53
1.12027e-54
1.08353e-56
1.86472e-56
7.59486e-59
-3.08397e-63
-2.87492e-54
-1.77587e-51
-4.05443e-49
-4.55481e-47
-2.9014e-45
-1.1381e-43
-2.89444e-42
-4.92858e-41
-5.71931e-40
-4.54007e-39
-2.43597e-38
-8.54292e-38
-1.81565e-37
-1.9137e-37
-4.52305e-38
-2.03111e-42
-8.11279e-43
2.92018e-57
7.79321e-59
1.26906e-60
1.71057e-59
9.47776e-62
-2.82618e-76
-1.56582e-64
-1.25109e-61
-3.71749e-59
-5.48241e-57
-4.63098e-55
-2.43513e-53
-8.39483e-52
-1.95842e-50
-3.14091e-49
-3.45984e-48
-2.56059e-47
-1.20676e-46
-3.25693e-46
-4.37195e-46
-6.7224e-46
-4.64453e-45
-4.29981e-45
6.41042e-62
3.38897e-63
9.46018e-63
4.10907e-63
1.29333e-64
-1.31837e-81
-2.36051e-74
-3.02971e-71
-1.48321e-68
-3.71507e-66
-5.52812e-64
-5.35166e-62
-3.58487e-60
-1.73806e-58
-6.31452e-57
-1.76716e-55
-3.89838e-54
-6.91963e-53
-1.00522e-51
-1.20965e-50
-1.22423e-49
-1.20859e-48
-5.5377e-48
0
8.74801e-65
1.94628e-65
4.41239e-67
1.79807e-68
-3.89894e-89
-2.51544e-81
-4.70254e-78
-3.37406e-75
-1.24748e-72
-2.76012e-70
-4.00085e-68
-4.03678e-66
-2.95946e-64
-1.62678e-62
-6.86259e-61
-2.2635e-59
-5.94521e-58
-1.27031e-56
-2.26307e-55
-3.42667e-54
-4.78914e-53
-1.02063e-51
-1.65297e-66
-9.29352e-66
9.99805e-68
2.58735e-72
1.07784e-73
-4.00098e-97
-7.03238e-89
-1.8247e-85
-1.82361e-82
-9.43236e-80
-2.93299e-77
-6.00083e-75
-8.57489e-73
-8.91154e-71
-6.91833e-69
-4.07119e-67
-1.82038e-65
-6.11232e-64
-1.4919e-62
-2.48302e-61
-2.49273e-60
-1.40202e-59
-2.20941e-57
-2.09517e-68
-1.79615e-67
3.10641e-72
5.75438e-74
7.68309e-76
-1.02059e-106
-1.81938e-98
-6.12789e-95
-7.963e-92
-5.37435e-89
-2.19159e-86
-5.91901e-84
-1.12552e-81
-1.57179e-79
-1.65955e-77
-1.34851e-75
-8.49087e-74
-4.12005e-72
-1.50599e-70
-3.95561e-69
-6.8193e-68
-6.4698e-67
-4.21351e-66
-3.21478e-71
-5.36016e-70
5.83848e-75
1.77147e-76
1.41861e-78
-2.93073e-123
-3.25077e-108
-1.16203e-104
-1.57176e-101
-1.08186e-98
-4.40307e-96
-1.15947e-93
-2.09498e-91
-2.70108e-89
-2.54927e-87
-1.78524e-85
-9.28882e-84
-3.54409e-82
-9.57512e-81
-1.70782e-79
-1.7663e-78
-1.15081e-77
-3.48796e-76
-1.94109e-74
-5.44462e-73
-5.67952e-77
2.56291e-83
5.29005e-85
-6.83163e-131
-6.09735e-122
-1.62415e-118
-1.72276e-115
-1.61771e-112
-2.2651e-109
-2.91965e-106
-2.73873e-103
-1.87256e-100
-9.61076e-98
-3.79473e-95
-1.17374e-92
-2.88111e-90
-5.65386e-88
-8.89744e-86
-1.12005e-83
-1.11967e-81
-8.85145e-80
-5.83705e-78
-2.9372e-76
-6.91395e-79
5.82762e-88
3.02099e-88
-1.73876e-135
-8.2668e-128
-5.28889e-124
-1.29789e-120
-1.70159e-117
-1.51472e-114
-1.15485e-111
-8.53866e-109
-5.81185e-106
-3.35078e-103
-1.5851e-100
-6.1534e-98
-1.97813e-95
-5.30346e-93
-1.18951e-90
-2.22548e-88
-3.44719e-86
-4.39628e-84
-4.74315e-82
-5.25719e-80
-1.36239e-81
8.46515e-91
8.09443e-92
-3.38982e-144
-9.82186e-135
-1.08169e-130
-4.59416e-127
-1.01525e-123
-1.368e-120
-1.25114e-117
-8.50966e-115
-4.7295e-112
-2.36292e-109
-1.13066e-106
-5.19709e-104
-2.21729e-101
-8.48409e-99
-2.85051e-96
-8.29469e-94
-2.06833e-91
-4.40079e-89
-8.26726e-87
-1.82177e-84
-8.81901e-85
4.77644e-94
8.54407e-95
-1.81968e-153
-5.57799e-144
-1.38141e-139
-1.33652e-135
-6.81612e-132
-2.13931e-128
-4.54837e-125
-6.99838e-122
-8.18088e-119
-7.5439e-116
-5.65312e-113
-3.52601e-110
-1.86679e-107
-8.51028e-105
-3.37405e-102
-1.16939e-99
-3.56648e-97
-9.90254e-95
-2.88993e-92
-1.28429e-89
-2.11632e-88
8.76842e-98
1.21736e-97
-3.01173e-163
-9.58947e-153
-3.84327e-148
-5.99518e-144
-4.93239e-140
-2.50415e-136
-8.64317e-133
-2.16682e-129
-4.13969e-126
-6.25297e-123
-7.6862e-120
-7.86896e-117
-6.83785e-114
-5.11272e-111
-3.3195e-108
-1.87658e-105
-9.20443e-103
-3.88992e-100
-1.42578e-97
-5.43326e-95
-1.83009e-92
1.35169e-101
8.8719e-102
-4.26856e-175
-4.56147e-163
-3.60356e-158
-1.08395e-153
-1.70959e-149
-1.66459e-145
-1.10583e-141
-5.36035e-138
-1.98729e-134
-5.8347e-131
-1.39425e-127
-2.7729e-124
-4.67636e-121
-6.78315e-118
-8.55358e-115
-9.42974e-112
-9.10259e-109
-7.72205e-106
-5.92209e-103
-4.68257e-100
-5.41119e-97
8.59255e-106
8.17125e-106
-4.901e-195
-5.27184e-176
-1.16306e-170
-8.85413e-166
-3.45304e-161
-8.25608e-157
-1.34602e-152
-1.60576e-148
-1.47023e-144
-1.06761e-140
-6.30514e-137
-3.09245e-133
-1.28168e-129
-4.54785e-126
-1.39586e-122
-3.73186e-119
-8.75435e-116
-1.8445e-112
-3.84284e-109
-1.05727e-105
-5.55933e-102
1.3651e-110
1.4544e-110
0
-3.45635e-196
-5.84004e-190
-2.60082e-184
-5.80734e-179
-7.98887e-174
-7.49259e-169
-5.10078e-164
-2.64e-159
-1.07758e-154
-3.56151e-150
-9.71516e-146
-2.21974e-141
-4.28976e-137
-7.05312e-133
-9.89094e-129
-1.19198e-124
-1.29983e-120
-1.65702e-116
-4.35494e-112
-2.41936e-107
1.37852e-115
1.22455e-114
0.200968
1.99462e-12
1.35225e-12
1.4854e-12
0.341897
-9.87186e-09
6.34694e-13
1.43425e-12
0.760246
0.000188786
1.93033e-07
1.68015e-05
0.410456
0.131476
3.95647e-05
5.11361e-06
0.00373522
0.10921
0.018335
6.48155e-05
0.000168019
0.000813861
0.00639976
0.0102256
4.38981e-06
2.14129e-05
3.11659e-05
5.94682e-05
6.92114e-08
3.49436e-07
5.15484e-07
9.06972e-07
2.39206e-10
3.25118e-09
5.50751e-09
7.99745e-09
-5.77378e-14
1.0384e-11
2.96293e-11
6.52087e-11
5.75403e-15
4.41711e-14
1.09957e-13
4.03563e-13
3.09693e-17
3.04601e-16
3.86252e-16
3.72963e-16
9.7562e-20
9.28452e-19
1.63544e-18
3.24227e-18
1.98552e-22
1.93963e-21
3.50844e-21
1.22165e-20
9.08203e-25
3.42109e-24
6.0538e-24
2.86886e-23
2.91021e-27
6.67121e-27
1.13577e-26
3.86898e-26
4.43327e-30
1.13067e-29
2.48996e-29
5.91907e-29
6.54852e-33
1.31107e-32
4.08131e-32
9.91205e-32
8.62828e-36
1.42229e-35
5.06136e-35
9.64702e-35
7.76243e-39
1.56335e-38
5.5948e-38
6.4006e-38
6.06137e-42
1.4664e-41
4.78214e-41
3.72359e-41
3.5684e-45
1.01593e-44
2.93162e-44
2.0435e-44
1.77699e-48
5.52279e-48
1.31954e-47
8.9115e-48
7.8631e-52
2.45243e-51
4.48735e-51
2.29038e-51
2.46987e-55
8.79255e-55
1.1796e-54
3.93764e-55
6.32896e-59
2.45817e-58
2.48571e-58
7.65189e-59
1.29016e-61
5.24404e-62
4.17827e-62
1.30135e-62
7.5151e-65
1.05331e-65
4.45542e-66
1.60831e-66
2.87918e-68
2.81783e-69
3.11879e-70
1.49785e-70
1.36954e-71
1.15532e-72
5.42586e-74
1.18053e-74
3.85638e-75
4.40255e-76
3.50388e-77
7.41536e-78
1.65574e-78
1.36908e-79
1.29772e-80
4.15656e-81
1.01027e-81
3.12934e-83
3.33841e-84
1.42277e-84
1.70994e-87
1.35116e-86
9.02514e-88
4.16813e-88
2.20118e-91
1.88841e-90
3.95666e-91
1.13131e-91
9.78369e-94
4.09331e-94
3.44187e-95
2.87417e-95
7.88062e-97
1.55714e-97
2.44934e-98
6.79227e-99
1.8325e-100
4.33558e-101
6.80547e-102
1.44395e-102
6.40116e-104
1.53378e-104
2.34882e-105
3.19061e-106
2.98929e-107
1.75968e-108
3.5134e-109
6.07175e-110
5.65538e-111
3.62421e-112
1.00418e-112
1.31544e-113
1.08377e-114
1.6584e-115
3.79629e-116
4.52443e-117
5.40526e-12
1.29211e-11
5.78414e-14
2.98694e-17
2.46355e-20
1.53232e-23
5.99795e-27
2.01243e-30
5.00107e-34
1.76469e-37
2.63259e-41
6.56792e-45
4.61524e-49
3.55271e-53
1.09937e-57
1.87029e-62
1.33818e-69
6.75319e-76
1.02069e-79
2.28949e-12
1.16226e-11
2.80301e-12
2.26357e-15
6.62317e-19
3.96751e-22
1.37269e-25
5.06253e-29
1.85756e-32
8.55767e-36
1.74406e-39
5.93078e-43
5.62906e-47
5.97954e-51
3.05528e-55
8.01456e-60
1.38575e-65
1.45996e-73
1.15303e-79
3.33693e-06
9.07622e-11
3.26978e-12
2.66001e-13
6.22995e-17
1.33988e-20
3.07517e-24
5.8559e-28
6.25471e-32
8.94153e-36
2.85997e-39
7.37049e-43
1.53088e-46
1.65905e-50
1.2253e-54
5.56959e-59
1.55832e-63
8.91439e-69
1.94709e-75
6.52297e-05
1.32122e-08
1.89761e-11
3.63643e-12
8.46004e-15
1.14288e-18
2.37177e-22
4.30899e-26
4.56731e-30
1.39264e-34
3.06562e-39
3.01127e-43
3.94886e-47
6.2995e-51
5.86318e-55
3.67777e-59
1.04557e-63
1.38288e-68
4.68658e-74
7.6835e-05
1.29964e-05
3.28477e-09
1.08006e-11
2.54087e-13
6.48556e-17
7.49994e-21
1.35062e-24
1.51884e-28
7.33769e-33
9.80198e-38
2.08505e-42
3.91931e-47
8.11037e-53
1.41691e-56
2.10297e-60
7.67311e-65
1.29733e-69
6.5952e-75
0.00860547
1.48222e-05
7.64752e-08
1.60704e-10
3.36033e-13
6.23386e-16
3.48256e-20
7.81308e-24
1.03996e-27
6.67572e-32
1.40642e-36
1.00433e-41
3.67959e-46
2.22931e-51
4.26835e-57
9.80766e-63
3.55111e-66
5.53016e-71
2.3855e-76
0.00142854
4.39209e-06
3.28944e-08
9.94566e-11
1.90201e-13
1.55174e-16
1.27451e-20
1.16303e-24
3.19179e-28
2.5994e-32
1.04735e-36
1.36209e-41
4.66823e-46
8.30989e-51
6.60782e-56
2.00807e-61
1.65338e-67
2.06667e-72
1.05919e-77
1.43738e-06
7.96226e-08
2.79546e-10
1.39558e-12
3.42756e-15
9.80346e-19
1.60007e-22
7.48333e-26
1.17503e-29
8.18073e-34
2.75046e-38
9.89406e-43
3.60403e-47
5.49864e-52
3.88144e-57
1.40937e-62
4.61907e-68
7.7169e-74
2.70124e-79
1.06316e-08
4.20722e-10
7.10593e-12
3.60235e-14
2.72078e-17
1.00544e-20
5.59055e-24
1.85598e-27
2.57822e-31
1.23048e-35
7.64232e-40
3.92437e-44
1.13863e-48
1.44649e-53
1.01672e-58
6.59066e-64
2.37863e-69
3.63639e-75
5.8617e-81
7.66183e-11
8.47793e-12
9.46137e-14
1.93858e-16
1.612e-19
1.08922e-22
6.56305e-26
1.75268e-29
1.85596e-33
1.31324e-37
1.06052e-41
5.80994e-46
1.49775e-50
2.14582e-55
2.09297e-60
1.55851e-65
6.03676e-71
9.45796e-77
9.72542e-83
1.46747e-12
6.27201e-14
3.0906e-16
6.07656e-19
7.35146e-22
6.99649e-25
3.7605e-28
8.82472e-32
9.3408e-36
9.39617e-40
7.96979e-44
4.18752e-48
1.1254e-52
1.77968e-57
2.12813e-62
1.71067e-67
6.8614e-73
1.16312e-78
1.09607e-84
2.49074e-15
1.01443e-16
5.7039e-19
1.63153e-21
2.79689e-24
2.69728e-27
1.17119e-30
2.52931e-34
3.31729e-38
4.09836e-42
3.56058e-46
1.78058e-50
4.89698e-55
8.71589e-60
1.18297e-64
9.82572e-70
4.00634e-75
7.52178e-81
8.17837e-87
3.87594e-18
1.74945e-19
1.35782e-21
4.66878e-24
7.76529e-27
6.02972e-30
2.32935e-33
5.06297e-37
8.53091e-41
1.14239e-44
9.57466e-49
4.55258e-53
1.30947e-57
2.6645e-62
3.86651e-67
3.23148e-72
1.32534e-77
2.83184e-83
4.24777e-89
1.3361e-20
4.92456e-22
3.4543e-24
9.83728e-27
1.266e-29
8.38665e-33
3.12094e-36
7.99005e-40
1.58176e-43
2.09164e-47
1.64562e-51
7.6578e-56
2.36324e-60
5.31472e-65
7.85842e-70
6.48874e-75
2.7127e-80
7.38297e-86
1.66209e-91
2.90487e-23
8.9681e-25
5.03611e-27
1.13942e-29
1.28798e-32
8.09671e-36
3.3993e-39
1.02659e-42
2.07577e-46
2.56003e-50
1.90324e-54
9.01166e-59
3.01886e-63
7.15748e-68
1.04648e-72
8.51233e-78
3.79202e-83
1.66289e-88
5.64978e-94
3.23893e-26
8.75475e-28
4.12897e-30
8.22843e-33
9.32311e-36
6.80252e-39
3.28499e-42
1.00589e-45
1.87812e-49
2.14265e-53
1.56277e-57
7.79853e-62
2.78967e-66
6.66309e-71
9.49487e-76
7.7287e-81
4.61494e-86
3.75851e-91
1.62118e-96
2.60239e-29
4.73746e-31
2.26821e-33
5.34138e-36
7.07146e-39
5.45693e-42
2.50056e-45
6.87514e-49
1.16834e-52
1.28345e-56
9.64199e-61
5.11284e-65
1.87294e-69
4.36408e-74
6.07687e-79
5.3657e-84
6.38766e-89
8.35318e-94
4.01871e-99
2.96926e-32
4.76596e-34
2.06907e-36
4.2981e-39
4.89994e-42
3.22352e-45
1.28209e-48
3.19776e-52
5.23756e-56
5.88983e-60
4.66059e-64
2.5396e-68
9.10938e-73
2.05057e-77
2.8984e-82
4.25684e-87
1.06394e-91
1.67575e-96
8.31613e-102
3.10764e-35
3.8267e-37
1.27268e-39
2.11439e-42
2.04489e-45
1.18967e-48
4.41998e-52
1.09322e-55
1.85589e-59
2.18562e-63
1.76035e-67
9.35766e-72
3.22022e-76
7.20021e-81
1.32104e-85
5.26907e-90
1.76875e-94
2.95113e-99
1.44665e-104
1.7966e-38
1.69966e-40
4.51682e-43
6.23402e-46
5.50606e-49
3.16502e-52
1.21246e-55
3.14058e-59
5.49954e-63
6.43788e-67
4.97968e-71
2.52297e-75
8.55373e-80
2.31719e-84
1.27731e-88
7.38692e-93
2.6458e-97
4.43846e-102
2.15299e-107
6.74573e-42
4.86495e-44
1.28964e-46
1.78305e-49
1.44358e-52
7.94194e-56
3.00891e-59
7.61589e-63
1.27063e-66
1.3996e-70
1.02812e-74
5.15897e-79
2.12316e-83
1.72129e-87
1.58179e-91
9.70765e-96
3.51822e-100
5.81088e-105
2.80675e-110
2.5797e-45
1.68381e-47
4.55551e-50
5.9288e-53
4.13569e-56
1.87909e-59
5.96076e-63
1.34243e-66
2.08964e-70
2.22052e-74
1.65841e-78
1.08253e-82
1.43293e-86
1.97083e-90
1.89573e-94
1.20099e-98
4.24694e-103
6.96153e-108
3.35418e-113
1.13867e-48
6.67732e-51
1.41349e-53
1.50769e-56
8.64477e-60
3.30653e-63
8.93321e-67
1.75813e-70
2.61631e-74
2.97227e-78
3.67302e-82
8.37144e-86
1.60305e-89
2.24225e-93
2.2048e-97
1.35699e-101
4.77221e-106
7.83064e-111
3.80147e-116
2.65181e-52
1.39388e-54
2.32589e-57
2.00476e-60
1.18798e-63
4.56085e-67
1.21883e-70
2.36382e-74
3.94979e-78
1.07601e-81
3.94278e-85
1.02317e-88
1.99227e-92
2.71635e-96
2.51569e-100
1.53231e-104
5.46652e-109
9.26746e-114
4.40282e-119
5.45282e-56
2.62069e-58
4.44343e-61
3.48554e-64
1.64321e-67
6.35211e-71
1.8022e-74
4.7145e-78
2.4606e-81
1.18535e-84
4.24448e-88
1.1193e-91
2.16589e-95
2.95516e-99
2.78814e-103
1.68588e-107
5.87622e-112
9.65635e-117
4.64472e-122
9.78857e-60
4.78131e-62
8.32645e-65
6.13288e-68
2.67558e-71
9.15802e-75
4.159e-78
4.15618e-81
2.63328e-84
1.19869e-87
4.32963e-91
1.14933e-94
2.20885e-98
3.02178e-102
2.8385e-106
1.71643e-110
5.99315e-115
9.81078e-120
4.78198e-125
1.64479e-63
8.1688e-66
1.32252e-68
8.55718e-72
3.37666e-75
2.34561e-78
4.30374e-81
3.96343e-84
2.5587e-87
1.1826e-90
4.23133e-94
1.11622e-97
2.15887e-101
2.98193e-105
2.81931e-109
1.7085e-113
5.9379e-118
9.68929e-123
4.78756e-128
1.89572e-67
9.44795e-70
1.51876e-72
9.49407e-76
7.65664e-79
2.90137e-81
3.84401e-84
3.46147e-87
2.25806e-90
1.06278e-93
3.77476e-97
1.03193e-100
2.03792e-104
2.82626e-108
2.68044e-112
1.63086e-116
5.69207e-121
9.30604e-126
4.65878e-131
1.60741e-71
8.63403e-74
1.48893e-76
2.2749e-79
1.30823e-81
2.2695e-84
3.02612e-87
2.82597e-90
1.88376e-93
9.57278e-97
3.26103e-100
8.95576e-104
1.80533e-107
2.5592e-111
2.46602e-115
1.50972e-119
5.2581e-124
8.53322e-129
4.3443e-134
1.77868e-75
6.49861e-78
8.0366e-80
4.04985e-82
9.51521e-85
1.61762e-87
2.18888e-90
2.14057e-93
1.47757e-96
7.58901e-100
3.14463e-103
7.48969e-107
1.53957e-110
2.2311e-114
2.17249e-118
1.34446e-122
4.71572e-127
7.71326e-132
3.98922e-137
3.72148e-78
1.59172e-80
8.6184e-83
2.84803e-85
6.44611e-88
1.09757e-90
1.57109e-93
1.5123e-96
1.10096e-99
5.94271e-103
2.34919e-106
6.85886e-110
1.27322e-113
1.86384e-117
1.83604e-121
1.15275e-125
4.08873e-130
6.76975e-135
3.53868e-140
1.92978e-81
9.0975e-84
5.01814e-86
1.83225e-88
4.23348e-91
7.11864e-94
9.90201e-97
1.06422e-99
7.68682e-103
4.35084e-106
1.78006e-109
5.15891e-113
1.02193e-116
1.51375e-120
1.50802e-124
9.55644e-129
3.41421e-133
5.65347e-138
3.0068e-143
8.0341e-85
4.18302e-87
2.59839e-89
1.0265e-91
2.58139e-94
4.40119e-97
6.43265e-100
6.93675e-103
5.38002e-106
3.08233e-109
1.28519e-112
3.88206e-116
8.21137e-120
1.16455e-123
1.18494e-127
7.60501e-132
2.74191e-136
4.57379e-141
2.70915e-146
2.82585e-88
1.7342e-90
1.1642e-92
5.24807e-95
1.43903e-97
2.64217e-100
3.99942e-103
4.54036e-106
3.53849e-109
2.07837e-112
9.08734e-116
2.79645e-119
6.10259e-123
8.8338e-127
9.06174e-131
5.87129e-135
2.1335e-139
3.58241e-144
9.03549e-148
8.48177e-92
6.35566e-94
4.85915e-96
2.45435e-98
7.44208e-101
1.49813e-103
2.44256e-106
2.84671e-109
2.33588e-112
1.42e-115
5.97358e-119
1.97223e-122
4.43346e-126
6.78441e-130
6.75166e-134
4.42223e-138
1.6243e-142
5.58442e-147
1.20418e-148
2.24107e-95
2.13569e-97
1.88305e-99
1.06845e-101
3.66439e-104
8.30331e-107
1.44019e-109
1.75424e-112
1.48958e-115
9.24239e-119
4.14255e-122
1.31669e-125
3.14325e-129
4.91727e-133
4.90996e-137
3.2419e-141
1.21495e-145
5.50497e-148
7.81724e-150
5.20436e-99
6.54438e-101
6.76942e-103
4.35953e-105
1.69791e-107
4.4881e-110
8.26988e-113
1.04399e-115
9.33583e-119
5.98503e-122
2.69585e-125
8.91589e-129
2.1645e-132
3.41776e-136
3.50812e-140
2.32831e-144
1.35945e-147
5.85076e-149
2.66748e-151
1.01219e-102
1.83684e-104
2.27425e-106
1.70508e-108
7.98234e-111
2.33265e-113
4.61757e-116
6.11123e-119
5.67253e-122
3.75856e-125
1.75893e-128
5.88258e-132
1.4391e-135
2.36522e-139
2.4286e-143
4.35864e-147
1.91225e-148
2.94792e-150
5.61893e-153
1.9288e-106
4.68731e-108
7.52703e-110
6.92047e-112
3.70588e-114
1.21487e-116
2.59408e-119
3.59351e-122
3.46569e-125
2.37001e-128
1.13429e-131
3.87966e-135
9.57771e-139
1.61054e-142
1.9842e-146
5.004e-148
1.3727e-149
8.19764e-152
8.18439e-155
4.00893e-110
1.34198e-111
2.67633e-113
2.88257e-115
1.67131e-117
6.14573e-120
1.42038e-122
2.08315e-125
2.10102e-128
1.48588e-131
7.33733e-135
2.54738e-138
6.36428e-142
1.10047e-145
8.36314e-148
4.76489e-149
4.99218e-151
1.46718e-153
8.89938e-157
8.66312e-114
4.10827e-115
9.33902e-117
1.12811e-118
7.65115e-121
3.09639e-123
7.73179e-126
1.20303e-128
1.27341e-131
9.33846e-135
4.73656e-138
1.68563e-141
4.24656e-145
1.42083e-147
9.9237e-149
2.16228e-150
1.09014e-152
1.87206e-155
7.63284e-159
1.70651e-117
1.14228e-118
3.19983e-120
4.56515e-122
3.49513e-124
1.55958e-126
4.2258e-129
6.96243e-132
7.69085e-135
5.83986e-138
3.06138e-141
1.11987e-144
1.93389e-147
1.85581e-148
5.53869e-150
5.51324e-152
1.62319e-154
1.82644e-157
5.38435e-161
1
1
1
1
1
1
1
1
1
1
1
1
1
1
1
1
1
1
1
1
0.999997
0.739489
0.272005
1
1
1
1
1
1
1
1
1
1
1
1
1
1
1
1
1
1
1
0.999999
0.999997
0.999997
0.905515
1
1
1
1
1
1
1
1
1
1
1
1
1
1
1
1
1
1
1
0.999998
1
0.999963
0.85808
1
1
1
1
1
1
1
1
1
1
1
1
1
1
1
1
1
1
1
1
1
0.999996
0.958469
1
1
1
1
1
1
1
1
1
1
1
1
1
1
1
1
1
1
1
1
1
1
0.940171
1
1
1
1
1
1
1
1
1
1
1
1
1
1
1
1
1
1
1
0.999982
1
1
0.935888
1
1
1
1
1
1
1
1
1
1
1
1
1
1
1
1
1
1
1
0.99924
0.999996
1
0.935886
1
1
1
1
1
1
1
1
1
1
1
1
1
1
1
1
1
0.999999
0.999985
0.794221
0.17141
0.86087
0.946791
2.66373e-36
3.82431e-36
3.71527e-38
4.16252e-41
4.39415e-44
3.65163e-47
1.79096e-50
8.06616e-54
3.14432e-57
1.11224e-60
2.83966e-64
4.72972e-68
5.76873e-72
5.52572e-76
2.48426e-80
9.74885e-85
1.99102e-89
1.27087e-95
1.10908e-97
9.4786e-32
1.48239e-31
5.29458e-33
3.31254e-36
3.83404e-39
3.40299e-42
2.18567e-45
1.05222e-48
7.13185e-52
1.88783e-55
4.65518e-59
1.62047e-62
9.12494e-67
1.58147e-70
2.1617e-75
1.35153e-79
6.07177e-86
1.3331e-91
1.80596e-97
5.1927e-28
1.46688e-27
3.2072e-29
2.14546e-32
1.85452e-35
1.29144e-38
6.86221e-42
3.3449e-45
1.14251e-48
3.56415e-52
8.66435e-56
1.13105e-59
2.41234e-63
5.60564e-68
8.87794e-72
7.69212e-78
5.16356e-83
1.82403e-90
1.80126e-95
1.61821e-24
4.91096e-24
5.13998e-26
4.13311e-29
3.08971e-32
1.69048e-35
7.74957e-39
3.17705e-42
9.13365e-46
2.39153e-49
5.03756e-53
6.36331e-57
1.57136e-60
1.85565e-65
1.06894e-69
1.46373e-75
1.07055e-80
6.53525e-90
1.17152e-93
3.04489e-21
9.76928e-21
4.93177e-23
3.50502e-26
2.19699e-29
9.77447e-33
3.65216e-36
1.2917e-39
2.42608e-43
1.26488e-46
9.26137e-51
3.67826e-54
4.43796e-59
6.3875e-63
2.26929e-68
1.38058e-72
1.33864e-79
6.9126e-88
3.27804e-91
2.99329e-18
1.54848e-17
3.83014e-20
1.40105e-23
7.09015e-27
2.79062e-30
8.42359e-34
2.8781e-37
3.95546e-41
1.48537e-44
8.03629e-49
1.42945e-52
9.10655e-58
2.58197e-60
1.35938e-66
2.50634e-70
3.13483e-77
1.77906e-85
8.86946e-89
5.63268e-16
1.01512e-15
2.28977e-18
1.07143e-21
6.75274e-25
2.89638e-28
8.9905e-32
3.10873e-35
3.93702e-39
7.68943e-43
4.12591e-47
1.79584e-51
8.87993e-56
1.50193e-58
7.54937e-65
2.0958e-67
6.39303e-76
4.9822e-83
2.37826e-86
1.87025e-14
2.94111e-15
5.59091e-18
9.16691e-21
9.50247e-24
6.42899e-27
2.52735e-30
9.23337e-34
1.48908e-37
3.66207e-41
1.97163e-45
7.12201e-50
3.86743e-54
3.73559e-57
2.21785e-63
3.81629e-66
8.55026e-75
1.93496e-81
9.66494e-82
1
1
1
1
1
1
1
1
1
1
1
1
1
1
1
1
0.999997
0.999734
0.703874
0.00411343
0.000998336
0.0130326
0.9477
1
1
1
1
1
1
1
1
1
1
1
1
1
1
1
0.999997
0.999311
0.190542
0.000516193
3.08418e-05
3.35367e-05
0.000772566
0.889675
1
1
1
1
1
1
1
1
1
1
1
1
1
1
1
0.999482
0.10704
0.000278403
6.62754e-06
5.71548e-07
1.74492e-06
4.14152e-05
0.804751
1
1
1
1
1
1
1
1
1
1
1
1
1
1
0.999933
0.247425
0.000304115
3.50465e-06
9.58979e-08
1.33112e-08
6.34207e-08
1.92079e-06
0.0271161
1
1
1
1
1
1
1
1
1
1
1
1
1
0.999998
0.670241
0.000612992
3.45146e-06
4.5753e-08
2.68487e-09
1.16454e-09
2.08134e-09
1.03164e-07
1.15287e-05
1
1
1
1
1
1
1
1
1
1
1
1
1
0.999807
0.00383213
6.225e-06
4.25551e-08
1.27857e-09
1.04615e-09
9.80997e-10
7.85171e-10
2.39278e-09
1.46029e-07
1
1
1
1
1
1
1
1
1
1
1
1
0.999998
0.342858
4.72858e-05
3.57034e-08
1.0082e-09
5.80753e-10
8.14675e-10
6.90445e-10
4.75971e-10
5.7413e-11
7.02595e-10
1
1
1
1
1
1
1
1
1
1
1
1
0.999744
0.00078515
2.37732e-07
1.02e-09
4.26361e-10
4.70733e-10
3.42382e-10
2.03474e-10
9.92213e-11
2.87335e-11
-1.97271e-10
1
1
1
1
1
1
1
1
1
1
1
0.999999
0.286495
3.14694e-06
-7.99337e-10
2.47835e-10
3.88648e-10
2.33979e-10
9.72253e-11
2.63825e-11
7.4819e-12
2.58406e-12
-1.71488e-12
1
1
1
1
1
1
1
1
1
0.999999
0.999993
0.999809
0.000186877
1.07103e-08
2.24004e-10
2.38747e-10
2.16664e-10
6.99167e-11
1.14382e-11
1.5494e-12
2.62098e-13
5.77231e-14
2.2475e-14
1
1
1
1
1
0.999999
0.999997
0.999993
0.999976
0.999921
0.999554
0.28153
-2.13593e-08
2.40422e-09
4.55061e-10
1.73888e-10
6.24088e-11
1.04276e-11
7.04392e-13
6.01214e-14
6.54055e-15
9.77289e-16
3.41231e-15
0.999986
0.999987
0.999983
0.999975
0.999953
0.999896
0.999772
0.999448
0.998242
0.972844
0.666256
0.0715681
-2.5374e-14
1.27746e-09
7.49684e-10
8.41523e-11
1.39358e-11
7.81575e-13
3.69234e-14
1.98771e-15
1.366e-16
1.31004e-17
1.41701e-17
0.998437
0.998472
0.997502
0.988051
0.946806
0.842134
0.64503
0.340847
0.0970786
8.98281e-09
4.83965e-09
3.04244e-07
4.9612e-11
2.3709e-09
6.97717e-11
2.58696e-11
2.19044e-12
5.17461e-14
1.55905e-15
5.61511e-17
2.44521e-18
1.45112e-19
1.15249e-19
0.0411843
0.0384985
0.00968465
-9.07398e-34
2.17259e-23
1.06083e-26
-2.82174e-10
-8.6552e-10
-8.99813e-11
5.10424e-10
4.77512e-09
0.000684552
3.86372e-05
1.66496e-09
1.54096e-11