/*--------------------------------*- C++ -*----------------------------------*\
| =========                 |                                                 |
| \\      /  F ield         | OpenFOAM: The Open Source CFD Toolbox           |
|  \\    /   O peration     | Version:  v1912                                 |
|   \\  /    A nd           | Website:  www.openfoam.com                      |
|    \\/     M anipulation  |                                                 |
\*---------------------------------------------------------------------------*/
FoamFile
{
    version     2.0;
    format      ascii;
    class       volScalarField;
    location    "0.15";
    object      p;
}
// * * * * * * * * * * * * * * * * * * * * * * * * * * * * * * * * * * * * * //

dimensions      [1 -1 -2 0 0 0 0];


internalField   nonuniform List<scalar> 
9072
(
2454.43
2483.89
2475.73
2462.97
2445.43
2422.58
2393.8
2358.51
2316.18
2266.44
2209.3
2145.44
2076.75
2007.17
1943.95
1899.81
1896.03
1966.83
2165.37
2550.52
3147.84
3751.22
3923.32
2393.87
2423.97
2415.83
2403.05
2385.5
2362.6
2333.76
2298.36
2255.86
2205.88
2148.38
2083.98
2014.47
1943.66
1878.53
1831.43
1822.98
1885.83
2067.29
2423.55
2974.29
3594.57
3890.2
2331.97
2362.64
2354.53
2341.74
2324.14
2301.14
2272.14
2236.49
2193.62
2143.08
2084.74
2019.09
1947.7
1874.03
1804.53
1750.62
1731.42
1777.47
1933.95
2255.12
2768.18
3387.97
3975.84
2268.74
2299.95
2291.86
2279.05
2261.38
2238.23
2208.97
2172.95
2129.5
2078.09
2018.46
1950.88
1876.6
1798.52
1722.28
1657.86
1622.08
1642.19
1759.52
2028.84
2503.29
3168.88
3866.47
2204.23
2235.92
2227.84
2215.02
2197.24
2173.89
2144.31
2107.78
2063.57
2011.01
1949.66
1879.52
1801.38
1717.46
1632.26
1553.83
1495.94
1481
1543.58
1735.51
2139.73
2835.26
3640.42
2138.47
2170.6
2162.52
2149.69
2131.78
2108.18
2078.21
2041.07
1995.92
1941.95
1878.5
1805.2
1722.33
1631.25
1535.06
1439.49
1354.54
1295.9
1286.88
1363.71
1625.04
2295.61
3253.62
2071.54
2104.05
2095.97
2083.11
2065.06
2041.17
2010.74
1972.88
1926.65
1871.04
1805.14
1728.17
1639.79
1540.41
1431.5
1316.2
1200.15
1090.23
993.68
909.26
884.81
1374.89
2575.62
2003.49
2036.33
2028.24
2015.34
1997.12
1972.92
1941.98
1903.33
1855.89
1798.46
1729.81
1648.73
1554.19
1445.57
1322.55
1185.57
1035.23
868.403
674.688
398.46
75.4483
203.919
1460.7
-4.03845
-3.98066
-3.90487
-3.77814
-3.61428
-3.43167
-3.24587
-3.06751
-2.90283
-2.75488
-2.62468
-2.5121
-2.41644
-2.33628
-2.27087
-2.21923
-2.18055
-2.15421
-2.13972
-4.10816
-4.04698
-3.97088
-3.84211
-3.67579
-3.49112
-3.30389
-3.12467
-2.95955
-2.81143
-2.68123
-2.56879
-2.47319
-2.39317
-2.32788
-2.27635
-2.23777
-2.21147
-2.19701
-4.18712
-4.12388
-4.04673
-3.91296
-3.74075
-3.5512
-3.36061
-3.17939
-3.01327
-2.8648
-2.73461
-2.62251
-2.52708
-2.4474
-2.38241
-2.33114
-2.29275
-2.26659
-2.25221
-4.27671
-4.21283
-4.13352
-3.99097
-3.80903
-3.61165
-3.41579
-3.23149
-3.06387
-2.9149
-2.78481
-2.67306
-2.57812
-2.49897
-2.43446
-2.38359
-2.34552
-2.31958
-2.30532
-4.38167
-4.31694
-4.23286
-4.07647
-3.88034
-3.67205
-3.46904
-3.28069
-3.11115
-2.96162
-2.83175
-2.72055
-2.62632
-2.5479
-2.48406
-2.43374
-2.3961
-2.37046
-2.35637
-4.51607
-4.44273
-4.34698
-4.1697
-3.95422
-3.73176
-3.51985
-3.32661
-3.1549
-3.00484
-2.87549
-2.76494
-2.67166
-2.59419
-2.53121
-2.4816
-2.44451
-2.41926
-2.40538
-4.70911
-4.59611
-4.47785
-4.27066
-4.02986
-3.78991
-3.56749
-3.3688
-3.19484
-3.04438
-2.91577
-2.80621
-2.71415
-2.63787
-2.57593
-2.5272
-2.49078
-2.46599
-2.45237
-5.0356
-4.78221
-4.62789
-4.37899
-4.10598
-3.84529
-3.6111
-3.4067
-3.23063
-3.08025
-2.95248
-2.84434
-2.75379
-2.67896
-2.61828
-2.57058
-2.53495
-2.51071
-2.49739
1875.34
1948.01
1939.87
1926.93
1908.46
1883.83
1852.19
1812.45
1763.34
1703.37
1630.9
1544.11
1441.05
1319.63
1177.29
1011.11
814.487
572.304
226.926
7.03984
3.22758
15.3163
243.7
1723.71
1797.78
1789.58
1776.49
1757.61
1732.24
1699.39
1657.75
1605.67
1541.16
1461.81
1364.71
1246.31
1102.01
925.889
708.766
435.861
88.1538
1.10096
0.406133
0.558305
1.20219
9.05262
1568.85
1643.84
1635.63
1622.38
1603.12
1577.09
1543.13
1499.69
1444.77
1375.82
1289.67
1182.29
1048.59
881.847
672.707
409.841
72.3654
0.571692
-0.0442775
0.131549
0.391391
0.986888
0.964092
1411.64
1487.14
1478.93
1465.55
1446.04
1419.55
1384.76
1339.91
1282.64
1209.89
1117.75
1001.18
853.665
666.506
430.925
114.218
0.598532
-0.408668
-0.206531
0.0726018
0.434245
0.908278
1.24606
1252.98
1328.62
1320.45
1307.03
1287.46
1260.82
1225.67
1180.04
1121.3
1045.93
949.333
825.577
667.159
463.949
197.902
1.7012
-0.674028
-0.518635
-0.269242
0.0442197
0.423766
0.877968
1.34436
1093.77
1169.22
1161.15
1147.82
1128.45
1102.05
1067.14
1021.63
962.655
886.297
787.418
659.373
493.156
283.01
14.8653
-0.982324
-0.885365
-0.639327
-0.364554
-0.053652
0.307345
0.737834
1.29018
934.829
1009.83
1001.92
988.854
969.958
944.264
910.302
865.961
808.255
732.998
634.482
505.711
337.034
112.437
-0.860552
-1.30478
-1.0375
-0.772523
-0.506316
-0.222762
0.0852493
0.415785
0.752218
776.935
851.263
843.573
830.944
812.807
788.271
755.975
713.918
659.171
587.459
492.518
365.941
202.43
3.63765
-1.62852
-1.40964
-1.15777
-0.917521
-0.679181
-0.437593
-0.194992
0.0339613
0.206915
620.709
694.173
686.765
674.711
657.561
634.564
604.568
565.832
515.729
450.204
362.903
243.002
77.4297
-1.55634
-1.71629
-1.49858
-1.27606
-1.06911
-0.868429
-0.673466
-0.491634
-0.340651
-0.254082
466.7
539.148
532.054
520.656
504.619
483.393
456.117
421.432
377.328
320.514
245.035
141.529
1.01811
-1.95826
-1.76465
-1.56555
-1.39214
-1.22501
-1.06407
-0.913288
-0.781919
-0.685947
-0.648741
315.284
386.582
379.809
369.071
354.126
334.736
310.391
280.013
242.522
196.265
135.284
50.7329
-1.69731
-1.86256
-1.75403
-1.63437
-1.51125
-1.38477
-1.26079
-1.14748
-1.05517
-0.996877
-0.988644
166.777
236.859
230.492
220.361
206.115
188.231
166.669
139.388
105.145
71.1225
26.4914
7.11475
-1.47995
-1.68277
-1.75787
-1.72118
-1.64287
-1.5498
-1.45598
-1.37198
-1.30808
-1.2749
-1.28322
30.4162
89.7237
83.5446
74.595
60.6778
45.2256
30.8747
17.5139
3.8509
-2.12554
-2.06036
-1.82636
-1.6544
-1.81204
-1.87291
-1.85252
-1.79412
-1.72087
-1.64767
-1.58478
-1.54081
-1.52391
-1.54116
-2.06453
-0.483653
-1.29711
-1.92249
-2.01689
-2.17421
-2.35209
-2.34596
-2.41936
-2.53371
-2.41104
-2.26933
-2.04461
-2.12714
-2.07849
-2.02535
-1.96164
-1.8951
-1.83391
-1.78506
-1.75466
-1.74814
-1.76989
-2.17744
-2.12424
-2.13982
-2.14612
-2.18212
-2.26905
-2.37582
-2.47022
-2.59626
-2.749
-2.79269
-2.68327
-2.44577
-2.4304
-2.30329
-2.21088
-2.13305
-2.06617
-2.01176
-1.97247
-1.95139
-1.95159
-1.97533
-2.29169
-2.24103
-2.25171
-2.26851
-2.30316
-2.36417
-2.45148
-2.57545
-2.78406
-3.1435
-3.45665
-3.31521
-3.00638
-2.69883
-2.51036
-2.38448
-2.29471
-2.22745
-2.17849
-2.14673
-2.13279
-2.13776
-2.1624
-2.40188
-2.35253
-2.36178
-2.37853
-2.40762
-2.45528
-2.53072
-2.65841
-2.92519
-3.4938
-4.22393
-3.97172
-3.55613
-3.00481
-2.69089
-2.53438
-2.43863
-2.37489
-2.33279
-2.30844
-2.30074
-2.3096
-2.33483
-2.5078
-2.45904
-2.46725
-2.48116
-2.50371
-2.53946
-2.59755
-2.70029
-2.93133
-3.46991
-4.25481
-4.16164
-4.04346
-3.20755
-2.81671
-2.65092
-2.56196
-2.50812
-2.47548
-2.45914
-2.45751
-2.46989
-2.4957
-2.61242
-2.56298
-2.56949
-2.57997
-2.59574
-2.61992
-2.65842
-2.72246
-2.84495
-3.122
-3.52643
-3.62268
-3.44641
-3.02465
-2.83564
-2.72926
-2.6673
-2.62995
-2.60898
-2.60124
-2.60553
-2.6212
-2.64767
-2.7187
-2.6672
-2.67156
-2.67839
-2.6882
-2.70292
-2.72587
-2.76236
-2.81992
-2.91448
-3.02515
-3.05828
-3.00328
-2.91737
-2.8479
-2.79834
-2.76567
-2.74597
-2.73686
-2.73736
-2.7471
-2.76569
-2.7928
-2.82819
-2.77412
-2.77656
-2.78023
-2.78557
-2.79383
-2.80677
-2.82711
-2.85762
-2.89859
-2.93791
-2.95574
-2.94826
-2.92423
-2.89908
-2.88001
-2.86766
-2.86185
-2.86255
-2.86997
-2.88423
-2.9052
-2.93274
-2.94195
-2.88509
-2.88617
-2.88769
-2.89024
-2.89466
-2.90181
-2.91277
-2.92878
-2.94922
-2.96857
-2.98065
-2.98435
-2.9824
-2.97883
-2.97649
-2.97683
-2.98056
-2.98839
-3.00095
-3.01858
-3.04126
-3.06892
-3.06011
-3.00065
-3.00094
-3.00138
-3.00249
-3.00486
-3.00891
-3.01512
-3.0241
-3.03558
-3.04766
-3.05812
-3.06628
-3.07283
-3.07878
-3.08525
-3.09303
-3.10283
-3.11545
-3.13155
-3.15142
-3.17505
-3.20244
-3.18284
-3.12091
-3.12083
-3.12094
-3.12157
-3.12301
-3.1255
-3.1295
-3.13541
-3.14324
-3.1524
-3.16206
-3.17183
-3.18183
-3.19214
-3.20303
-3.21491
-3.22836
-3.24403
-3.26231
-3.28336
-3.30723
-3.33403
-3.3097
-3.24562
-3.24555
-3.24574
-3.24628
-3.24731
-3.24916
-3.25226
-3.25695
-3.26335
-3.27129
-3.28052
-3.29088
-3.30218
-3.31431
-3.32722
-3.3412
-3.35669
-3.37402
-3.39333
-3.4147
-3.43829
-3.46425
-3.44065
-3.37464
-3.37467
-3.37492
-3.37548
-3.37651
-3.37831
-3.38123
-3.38552
-3.39133
-3.39873
-3.40771
-3.41812
-3.42969
-3.4423
-3.45593
-3.47083
-3.48718
-3.50508
-3.52456
-3.54571
-3.56867
-3.59355
-3.57493
-3.50745
-3.50757
-3.50791
-3.5086
-3.50985
-3.51186
-3.51483
-3.51895
-3.52446
-3.53154
-3.5402
-3.55027
-3.56154
-3.57397
-3.58769
-3.60274
-3.61915
-3.63692
-3.65605
-3.67662
-3.69867
-3.72219
-3.71175
-3.64318
-3.64345
-3.64396
-3.64485
-3.64627
-3.64836
-3.65128
-3.65528
-3.66061
-3.66742
-3.67566
-3.68519
-3.69595
-3.70801
-3.72145
-3.73617
-3.75215
-3.76936
-3.7878
-3.80748
-3.82833
-3.85032
-3.85056
-3.78108
-3.7815
-3.78217
-3.78318
-3.78463
-3.78668
-3.78955
-3.79351
-3.79872
-3.80521
-3.81294
-3.82187
-3.83208
-3.84362
-3.85648
-3.87058
-3.88583
-3.9022
-3.91966
-3.93818
-3.95764
-3.97805
-3.99108
-3.92083
-3.92126
-3.92196
-3.92298
-3.92442
-3.9265
-3.92941
-3.93331
-3.93826
-3.94429
-3.95141
-3.95972
-3.96931
-3.98019
-3.99229
-4.00553
-4.01985
-4.03519
-4.05149
-4.06869
-4.0867
-4.10554
-4.13258
-4.0619
-4.06227
-4.06291
-4.06389
-4.06535
-4.06745
-4.07028
-4.07394
-4.07847
-4.08395
-4.09049
-4.0982
-4.10713
-4.11725
-4.12848
-4.14075
-4.15401
-4.16819
-4.18322
-4.19904
-4.21559
-4.23289
-4.27462
-4.20369
-4.20401
-4.20461
-4.20557
-4.20699
-4.20896
-4.21154
-4.21483
-4.21891
-4.22391
-4.22995
-4.23709
-4.24533
-4.25461
-4.26488
-4.27609
-4.28818
-4.30112
-4.31483
-4.32927
-4.34438
-4.36014
-4.41706
-4.34593
-4.34626
-4.34685
-4.34775
-4.34903
-4.35077
-4.35304
-4.35597
-4.35967
-4.36425
-4.36978
-4.37627
-4.38371
-4.39206
-4.4013
-4.41138
-4.42226
-4.43394
-4.44633
-4.45941
-4.47309
-4.48734
-4.55976
-4.48854
-4.48886
-4.48939
-4.49017
-4.49128
-4.49278
-4.49479
-4.4974
-4.50072
-4.5048
-4.50971
-4.51544
-4.522
-4.52938
-4.53756
-4.54652
-4.55623
-4.56667
-4.57777
-4.5895
-4.60175
-4.61451
-4.70244
-4.63124
-4.63151
-4.63194
-4.63259
-4.63352
-4.63481
-4.63655
-4.63882
-4.64169
-4.64522
-4.64944
-4.65439
-4.66008
-4.66651
-4.67369
-4.68158
-4.69016
-4.69939
-4.70921
-4.71958
-4.73042
-4.74169
-4.84516
-4.77386
-4.77406
-4.77439
-4.77491
-4.77568
-4.77675
-4.7782
-4.78008
-4.78248
-4.78544
-4.789
-4.7932
-4.79806
-4.80359
-4.80979
-4.81664
-4.82411
-4.83213
-4.84066
-4.84968
-4.8591
-4.86888
-4.98821
-4.91667
-4.9168
-4.91703
-4.91741
-4.91798
-4.9188
-4.91992
-4.92141
-4.92332
-4.92571
-4.92862
-4.93208
-4.93613
-4.94077
-4.94599
-4.95179
-4.95811
-4.9649
-4.97214
-4.97979
-4.9878
-4.9961
-5.13177
-5.05994
-5.05999
-5.06011
-5.06032
-5.06066
-5.06118
-5.06194
-5.06299
-5.06439
-5.06619
-5.06843
-5.07115
-5.07436
-5.07807
-5.08229
-5.08699
-5.09214
-5.09771
-5.10364
-5.10993
-5.11651
-5.12334
-5.27578
-5.2037
-5.20367
-5.20365
-5.20366
-5.20374
-5.20393
-5.20429
-5.20488
-5.20573
-5.2069
-5.20843
-5.21036
-5.21269
-5.21546
-5.21864
-5.22223
-5.2262
-5.23053
-5.23516
-5.24008
-5.24527
-5.25064
-5.42003
-5.34782
-5.3477
-5.34753
-5.34732
-5.34711
-5.34695
-5.34689
-5.34697
-5.34724
-5.34776
-5.34856
-5.34966
-5.35111
-5.35289
-5.35503
-5.3575
-5.36029
-5.36338
-5.36672
-5.3703
-5.37408
-5.37802
-5.5645
-5.4922
-5.49201
-5.49167
-5.49122
-5.49071
-5.49017
-5.48965
-5.48921
-5.48888
-5.48873
-5.48877
-5.48905
-5.48959
-5.49039
-5.49148
-5.49283
-5.49445
-5.4963
-5.49836
-5.50061
-5.50301
-5.50552
-5.70902
-5.63678
-5.63655
-5.63604
-5.63535
-5.63452
-5.63359
-5.63261
-5.63163
-5.6307
-5.62985
-5.62913
-5.62857
-5.62819
-5.628
-5.62803
-5.62826
-5.6287
-5.62933
-5.63012
-5.63106
-5.63209
-5.63317
-5.78408
-5.08203
-5.50055
-6.35933
-1.94594
-4.87751
-5.66171
-6.12527
-14.213
-6.99364
-7.69105
-8.19185
-5.71511
-9.80614
-11.4512
-12.201
0.615428
-6.92122
-11.0893
-13.356
1.72277
1.03124
-2.28772
-8.47978
0.912375
0.77232
0.309013
-0.110952
0.224554
0.147032
0.0100443
-0.133349
-0.276179
-0.336399
-0.431731
-0.562107
-0.689363
-0.744451
-0.825394
-0.933827
-1.03739
-1.08769
-1.15628
-1.24351
-1.3334
-1.37802
-1.43566
-1.50602
-1.58933
-1.62839
-1.67686
-1.73425
-1.81474
-1.84884
-1.88988
-1.93741
-2.01652
-2.04645
-2.08168
-2.12178
-2.20036
-2.22691
-2.25753
-2.29191
-2.37014
-2.39399
-2.42103
-2.451
-2.52891
-2.55067
-2.57496
-2.60153
-2.67931
-2.69942
-2.72148
-2.74531
-2.82317
-2.84193
-2.86217
-2.88378
-2.96196
-2.97958
-2.99834
-3.01816
-3.09698
-3.11358
-3.1311
-3.14941
-3.22931
-3.24495
-3.26132
-3.27828
-3.3597
-3.37443
-3.38968
-3.40535
-3.48866
-3.50247
-3.51661
-3.53109
-3.61656
-3.62941
-3.64252
-3.65594
-3.74365
-3.75557
-3.76774
-3.78021
-3.8702
-3.88123
-3.89254
-3.9041
-3.99643
-4.00663
-4.01708
-4.02773
-4.12248
-4.13186
-4.14144
-4.15119
-4.24841
-4.25699
-4.26573
-4.27462
-4.37426
-4.38207
-4.39001
-4.39808
-4.5001
-4.50715
-4.51433
-4.52159
-4.62594
-4.63227
-4.63868
-4.64515
-4.7518
-4.75738
-4.76304
-4.76873
-4.87767
-4.88252
-4.88743
-4.89236
-5.00356
-5.00769
-5.01184
-5.01602
-5.12949
-5.1329
-5.13633
-5.13978
-5.25549
-5.25819
-5.2609
-5.26362
-5.38158
-5.38356
-5.38555
-5.38756
-5.50778
-5.50906
-5.51034
-5.51163
-5.63413
-5.63469
-5.63524
-5.6358
-5.54222
-5.10812
-4.85218
-4.52679
-4.20193
-3.91057
-3.6602
-3.4487
-3.27042
-3.12084
-2.99471
-2.88894
-2.80079
-2.72817
-2.6694
-2.62324
-2.58879
-2.56536
-2.55248
-6.18479
-5.8559
-5.31072
-4.78073
-4.34061
-3.99144
-3.71546
-3.49686
-3.31778
-3.17164
-3.05097
-2.95096
-2.86823
-2.80037
-2.74558
-2.70266
-2.67064
-2.64886
-2.63689
-8.1626
-6.95434
-5.80896
-4.98269
-4.4147
-4.01803
-3.72916
-3.51026
-3.33922
-3.20223
-3.0907
-2.99906
-2.92364
-2.86189
-2.81216
-2.77321
-2.74414
-2.72436
-2.71349
-11.8634
-8.37153
-6.1583
-5.01532
-4.37207
-3.96549
-3.68861
-3.4876
-3.33417
-3.21283
-3.11465
-3.03419
-2.96804
-2.91376
-2.87004
-2.83573
-2.81009
-2.79262
-2.78301
-13.5504
-9.0176
-5.93839
-4.74589
-4.16058
-3.81877
-3.59254
-3.42938
-3.30466
-3.20548
-3.12469
-3.05799
-3.0027
-2.95722
-2.92032
-2.89124
-2.86942
-2.85451
-2.8463
-12.4013
-6.94376
-4.74517
-4.11927
-3.79706
-3.59554
-3.45264
-3.34353
-3.2562
-3.18421
-3.12384
-3.0728
-3.02978
-2.99384
-2.96435
-2.94089
-2.92317
-2.911
-2.90427
-0.761732
-2.68874
-3.25158
-3.38451
-3.3808
-3.34122
-3.29249
-3.24345
-3.19716
-3.15456
-3.1159
-3.08153
-3.05135
-3.02537
-3.00358
-2.98595
-2.97246
-2.96312
-2.95792
-0.394602
-1.59032
-2.42594
-2.83249
-3.02377
-3.10706
-3.13865
-3.1443
-3.13652
-3.12239
-3.10523
-3.08724
-3.06977
-3.05369
-3.03955
-3.02772
-3.01845
-3.01192
-3.00826
-0.801923
-1.4721
-2.09494
-2.51736
-2.77394
-2.92452
-3.01081
-3.0586
-3.08319
-3.09374
-3.09581
-3.09292
-3.08735
-3.08063
-3.07378
-3.06751
-3.0623
-3.05849
-3.05631
-1.11995
-1.5592
-2.00673
-2.36743
-2.62633
-2.80218
-2.9185
-2.99419
-3.04261
-3.07286
-3.09101
-3.10117
-3.10615
-3.10788
-3.1077
-3.10655
-3.10511
-3.10384
-3.10304
-1.3858
-1.69903
-2.02985
-2.32382
-2.55859
-2.73494
-2.86295
-2.95408
-3.01812
-3.06265
-3.09328
-3.11405
-3.12789
-3.13689
-3.14255
-3.14596
-3.14789
-3.1489
-3.14935
-1.61679
-1.85212
-2.10502
-2.34312
-2.54741
-2.71237
-2.84059
-2.93792
-3.01069
-3.06455
-3.10411
-3.13296
-3.15386
-3.16883
-3.17939
-3.18667
-3.19152
-3.19453
-3.19608
-1.82251
-2.00605
-2.20515
-2.39953
-2.57471
-2.72385
-2.84598
-2.9434
-3.01973
-3.07882
-3.12417
-3.15875
-3.18493
-3.20455
-3.21903
-3.22949
-3.23676
-3.24145
-3.24392
-2.00934
-2.15669
-2.31742
-2.47804
-2.62784
-2.76051
-2.87361
-2.96744
-3.04375
-3.10493
-3.15351
-3.19176
-3.22161
-3.24463
-3.26209
-3.27503
-3.28423
-3.29027
-3.29349
-2.18167
-2.30288
-2.43537
-2.56981
-2.69831
-2.81552
-2.91864
-3.0069
-3.08086
-3.14191
-3.19173
-3.23197
-3.26409
-3.28938
-3.30896
-3.32373
-3.33439
-3.34145
-3.34526
-2.34271
-2.44448
-2.55568
-2.66964
-2.7805
-2.8839
-2.97713
-3.05893
-3.12918
-3.1886
-3.2382
-3.27907
-3.31232
-3.33895
-3.35989
-3.37589
-3.38757
-3.39537
-3.3996
-2.49485
-2.58186
-2.67665
-2.77439
-2.87069
-2.96204
-3.04597
-3.12109
-3.18697
-3.2438
-3.29213
-3.33263
-3.36609
-3.39329
-3.41494
-3.43168
-3.444
-3.45228
-3.45678
-2.63994
-2.71556
-2.79743
-2.88218
-2.96643
-3.04735
-3.1228
-3.19145
-3.25268
-3.30636
-3.35271
-3.39211
-3.42511
-3.45226
-3.47411
-3.49116
-3.50379
-3.51232
-3.51697
-2.77946
-2.84588
-2.91758
-2.99181
-3.06605
-3.138
-3.20588
-3.26844
-3.32498
-3.37523
-3.41916
-3.45698
-3.48902
-3.51566
-3.5373
-3.5543
-3.56697
-3.57556
-3.58027
-2.91451
-2.97361
-3.03699
-3.10258
-3.16848
-3.23272
-3.29385
-3.35076
-3.40277
-3.44949
-3.49079
-3.52672
-3.55745
-3.58323
-3.60433
-3.62101
-3.63351
-3.64202
-3.64669
-3.04608
-3.09918
-3.15573
-3.21418
-3.27296
-3.33056
-3.3857
-3.43744
-3.48514
-3.52839
-3.56697
-3.60082
-3.63001
-3.65469
-3.67501
-3.69117
-3.70333
-3.71164
-3.71621
-3.17496
-3.22302
-3.27386
-3.32629
-3.37903
-3.43083
-3.48065
-3.52769
-3.57137
-3.61127
-3.64712
-3.67881
-3.70633
-3.72974
-3.74913
-3.76461
-3.77631
-3.78433
-3.78875
-3.30176
-3.34553
-3.39154
-3.43883
-3.48634
-3.53306
-3.57814
-3.62093
-3.66089
-3.69759
-3.73078
-3.7603
-3.78608
-3.80812
-3.82645
-3.84116
-3.85231
-3.85998
-3.86422
-3.42697
-3.46705
-3.50891
-3.55174
-3.59467
-3.6369
-3.67777
-3.7167
-3.75321
-3.78691
-3.81754
-3.84491
-3.86892
-3.88954
-3.90676
-3.92063
-3.93118
-3.93845
-3.94248
-3.55108
-3.5879
-3.6261
-3.66498
-3.70386
-3.74212
-3.77921
-3.81465
-3.84798
-3.87886
-3.90703
-3.9323
-3.95456
-3.97374
-3.98983
-4.00283
-4.01274
-4.01958
-4.02338
-3.67445
-3.70832
-3.74321
-3.77856
-3.81383
-3.84855
-3.88225
-3.91448
-3.94487
-3.9731
-3.99893
-4.02218
-4.04273
-4.0605
-4.07545
-4.08756
-4.09681
-4.10321
-4.10678
-3.79736
-3.82847
-3.86033
-3.89249
-3.92453
-3.95606
-3.98666
-4.01596
-4.04362
-4.06937
-4.09299
-4.1143
-4.1332
-4.14959
-4.16341
-4.17463
-4.18322
-4.18917
-4.1925
-3.91992
-3.94845
-3.97752
-4.00679
-4.0359
-4.06451
-4.09228
-4.11887
-4.144
-4.16743
-4.18896
-4.20845
-4.22576
-4.2408
-4.25351
-4.26385
-4.27178
-4.27728
-4.28035
-4.04227
-4.06837
-4.09486
-4.12147
-4.14789
-4.17382
-4.19896
-4.22305
-4.24582
-4.26709
-4.28666
-4.30441
-4.32019
-4.33394
-4.34558
-4.35505
-4.36233
-4.36738
-4.3702
-4.16451
-4.18832
-4.21241
-4.23654
-4.26045
-4.28389
-4.3066
-4.32835
-4.34894
-4.36818
-4.38591
-4.402
-4.41633
-4.42883
-4.43942
-4.44805
-4.45469
-4.45931
-4.46188
-4.28676
-4.30837
-4.33019
-4.35198
-4.37354
-4.39465
-4.41509
-4.43467
-4.45321
-4.47054
-4.48652
-4.50104
-4.51399
-4.52529
-4.53488
-4.5427
-4.54872
-4.55291
-4.55525
-4.40907
-4.42857
-4.44821
-4.46778
-4.48713
-4.50604
-4.52435
-4.54189
-4.5585
-4.57403
-4.58836
-4.60138
-4.61301
-4.62317
-4.6318
-4.63884
-4.64426
-4.64804
-4.65015
-4.53146
-4.54891
-4.56645
-4.58392
-4.60116
-4.61801
-4.63431
-4.64992
-4.66469
-4.67852
-4.69128
-4.70289
-4.71325
-4.72232
-4.73002
-4.73631
-4.74116
-4.74454
-4.74642
-4.65391
-4.66939
-4.68492
-4.70038
-4.71562
-4.7305
-4.74489
-4.75866
-4.7717
-4.7839
-4.79516
-4.80541
-4.81457
-4.82259
-4.8294
-4.83497
-4.83927
-4.84226
-4.84393
-4.77643
-4.79
-4.8036
-4.81713
-4.83045
-4.84345
-4.85601
-4.86803
-4.87941
-4.89006
-4.89989
-4.90884
-4.91684
-4.92384
-4.9298
-4.93468
-4.93844
-4.94106
-4.94252
-4.89901
-4.91073
-4.92247
-4.93413
-4.94561
-4.9568
-4.96761
-4.97795
-4.98774
-4.99689
-5.00535
-5.01304
-5.01993
-5.02596
-5.03109
-5.03529
-5.03854
-5.04079
-5.04205
-5.02167
-5.03159
-5.04153
-5.05138
-5.06107
-5.07052
-5.07964
-5.08836
-5.09661
-5.10432
-5.11145
-5.11793
-5.12374
-5.12882
-5.13315
-5.1367
-5.13944
-5.14135
-5.14241
-5.14443
-5.15259
-5.16076
-5.16885
-5.17681
-5.18456
-5.19203
-5.19917
-5.20593
-5.21225
-5.21808
-5.22339
-5.22814
-5.23231
-5.23586
-5.23877
-5.24102
-5.24258
-5.24346
-5.26728
-5.27372
-5.28014
-5.28651
-5.29276
-5.29885
-5.30472
-5.31033
-5.31563
-5.32058
-5.32515
-5.32931
-5.33304
-5.33631
-5.33909
-5.34138
-5.34315
-5.34438
-5.34507
-5.39025
-5.39497
-5.39968
-5.40434
-5.40891
-5.41337
-5.41766
-5.42175
-5.42562
-5.42924
-5.43257
-5.43561
-5.43833
-5.44071
-5.44275
-5.44442
-5.44571
-5.44661
-5.44711
-5.51334
-5.51635
-5.51934
-5.52231
-5.52522
-5.52805
-5.53078
-5.53338
-5.53584
-5.53813
-5.54025
-5.54218
-5.5439
-5.54541
-5.54671
-5.54777
-5.54859
-5.54916
-5.54948
-5.63655
-5.63784
-5.63913
-5.6404
-5.64165
-5.64287
-5.64404
-5.64515
-5.64621
-5.64719
-5.6481
-5.64892
-5.64966
-5.65031
-5.65086
-5.65131
-5.65166
-5.65191
-5.65204
2485.49
2480.44
2469.92
2454.82
2434.71
2408.97
2377
2338.25
2292.24
2238.77
2178.13
2111.51
2041.72
1974.13
1918.41
1891.1
1919.29
2047.12
2330.95
2826.51
3479.34
3922.08
4064.29
2425.59
2420.53
2410.01
2394.91
2374.76
2348.96
2316.91
2278.03
2231.82
2178.05
2116.97
2049.68
1978.89
1909.77
1851.68
1820.66
1842.88
1958
2220.58
2677.37
3295.36
3823.16
4088.3
2364.33
2359.21
2348.71
2333.58
2313.36
2287.43
2255.18
2215.99
2169.33
2114.87
2052.76
1983.95
1910.84
1838.19
1774.65
1735.09
1743.82
1838.5
2070.81
2489.38
3076.7
3696.54
4275.81
2301.71
2296.52
2286.04
2270.86
2250.52
2224.4
2191.85
2152.19
2104.81
2049.3
1985.62
1914.44
1837.76
1759.67
1687.74
1634.98
1622.93
1685.52
1871.4
2238.54
2819.59
3534.34
4204.81
2237.77
2232.48
2222.02
2206.79
2186.3
2159.92
2126.96
2086.68
2038.36
1981.45
1915.67
1841.36
1759.93
1674.62
1591.5
1521.15
1481.28
1499.82
1619.16
1904.57
2451.89
3264.73
3964.46
2172.56
2167.15
2156.71
2141.41
2120.74
2094.04
2060.58
2019.54
1970.08
1911.44
1843.08
1764.91
1677.67
1583.51
1486.69
1394.85
1320.71
1283.27
1311.41
1458.74
1897.01
2797.85
3598.46
2106.13
2100.59
2090.16
2074.77
2053.88
2026.83
1992.8
1950.87
1900.08
1839.43
1768.07
1685.4
1591.41
1487
1374.35
1257.84
1144.01
1039.73
951.488
871.562
1014.67
1966.48
2991.32
2038.56
2032.84
2022.42
2006.94
1985.81
1958.35
1923.69
1880.78
1828.5
1765.62
1690.9
1603.2
1501.67
1385.86
1255.74
1112.13
954.293
776.274
553.032
191.638
100.163
612.739
1935.55
-3.99914
-3.94951
-3.84724
-3.69969
-3.52424
-3.33839
-3.15528
-2.98321
-2.82667
-2.68755
-2.56621
-2.46236
-2.37445
-2.30179
-2.24338
-2.19832
-2.16588
-2.14551
-2.13681
-4.06485
-4.01595
-3.91236
-3.76241
-3.58465
-3.39705
-3.2128
-3.04011
-2.88328
-2.74409
-2.62278
-2.51905
-2.43127
-2.35874
-2.30045
-2.25548
-2.22311
-2.20278
-2.19414
-4.14045
-4.09299
-3.986
-3.83027
-3.64698
-3.45526
-3.26838
-3.09423
-2.93676
-2.79743
-2.67625
-2.57277
-2.48533
-2.41313
-2.35512
-2.31038
-2.27817
-2.25795
-2.24935
-4.22713
-4.18204
-4.06883
-3.90328
-3.71103
-3.51276
-3.32178
-3.14542
-2.98701
-2.84752
-2.72669
-2.62355
-2.53665
-2.46495
-2.40738
-2.363
-2.33106
-2.31101
-2.30248
-4.32783
-4.28553
-4.16171
-3.9814
-3.77641
-3.56915
-3.37268
-3.19345
-3.03389
-2.89429
-2.77399
-2.67138
-2.58521
-2.51422
-2.45726
-2.41338
-2.38181
-2.362
-2.35357
-4.45046
-4.40753
-4.26565
-4.06442
-3.8425
-3.62382
-3.42063
-3.23802
-3.07722
-2.93764
-2.81797
-2.71624
-2.63104
-2.56096
-2.50479
-2.46154
-2.43044
-2.41092
-2.40261
-4.60326
-4.55118
-4.38149
-4.15178
-3.90841
-3.67595
-3.46503
-3.27877
-3.1168
-2.97757
-2.85868
-2.75811
-2.67413
-2.60519
-2.54998
-2.5075
-2.47697
-2.45781
-2.44966
-4.79133
-4.72027
-4.51001
-4.24252
-3.97285
-3.72452
-3.50519
-3.31529
-3.15243
-3.01383
-2.89607
-2.797
-2.71452
-2.64694
-2.59287
-2.55131
-2.52144
-2.5027
-2.49473
1950.33
1944.45
1934.06
1918.42
1896.96
1868.95
1833.41
1789.15
1734.81
1668.81
1589.42
1494.74
1382.79
1251.24
1097.45
917.242
701.051
417.659
47.2043
3.16691
5.65624
61.5739
183.644
1800.28
1794.18
1783.73
1767.81
1745.79
1716.83
1679.76
1633.13
1575.11
1503.51
1415.69
1308.42
1177.74
1018.38
823.181
581.245
263.407
10.9541
0.436292
0.451043
0.783344
1.78802
59.2922
1646.55
1640.23
1629.72
1613.54
1591.02
1561.19
1522.71
1473.81
1412.23
1335.12
1238.92
1119.12
969.821
783.318
549.331
242.573
7.21356
-0.0341853
0.0357958
0.263016
0.598832
0.976232
9.65501
1490.01
1483.54
1472.97
1456.6
1433.74
1403.29
1363.73
1313
1248.42
1166.53
1062.89
931.762
765.788
554.837
286.171
11.6034
-0.357982
-0.314317
-0.0784041
0.247702
0.681268
1.18693
0.915392
1331.57
1325.06
1314.47
1298.06
1275.1
1244.41
1204.31
1152.51
1085.96
1000.62
891.288
751.265
571.44
344.312
42.0461
-0.466004
-0.612672
-0.40446
-0.120067
0.226028
0.653599
1.16503
1.67399
1172.16
1165.72
1155.2
1138.94
1116.21
1085.77
1045.87
994.045
926.94
840.056
727.474
581.931
393.718
144.025
-0.110032
-1.01964
-0.767277
-0.504868
-0.214695
0.119871
0.512218
0.986834
1.56621
1012.67
1006.42
996.076
980.184
958.04
928.431
889.592
839.007
773.133
687.103
574.363
426.252
238.254
6.7701
-1.35441
-1.16675
-0.90356
-0.641064
-0.367283
-0.0720685
0.249274
0.585672
0.889768
853.923
847.95
837.911
822.61
801.412
773.201
736.326
688.364
625.752
543.351
434.222
287.984
93.7964
-1.26877
-1.5348
-1.28576
-1.0367
-0.798485
-0.558901
-0.31589
-0.076822
0.132894
0.245129
696.592
690.975
681.343
666.814
646.855
620.534
586.435
542.427
485.243
409.626
307.604
170.122
2.12635
-1.82152
-1.61234
-1.3824
-1.1715
-0.968229
-0.769967
-0.580077
-0.410622
-0.286112
-0.250465
541.281
536.056
526.908
513.247
494.699
470.582
439.81
400.736
350.914
285.86
196.497
62.4515
-1.69986
-1.85901
-1.66413
-1.47821
-1.30777
-1.14364
-0.986963
-0.844326
-0.728253
-0.658185
-0.661016
388.401
383.582
374.946
362.141
345.011
323.241
296.05
262.208
220.809
168.258
99.8038
-0.546337
-1.9228
-1.81211
-1.692
-1.57392
-1.44833
-1.322
-1.20223
-1.09794
-1.02086
-0.985404
-1.00865
238.33
234.013
225.923
213.733
197.624
177.959
154.124
122.71
87.5193
47.8826
15.2387
-1.36606
-1.60762
-1.74514
-1.74665
-1.68484
-1.59718
-1.50234
-1.4121
-1.33687
-1.28698
-1.2732
-1.30618
90.7124
86.7144
79.4965
67.9715
53.0272
37.8181
25.7124
8.71981
0.0571058
-2.12468
-2.01464
-1.69976
-1.78994
-1.86317
-1.86937
-1.82607
-1.75819
-1.68354
-1.61439
-1.5599
-1.5285
-1.52785
-1.56446
-0.653379
-0.812399
-1.76743
-1.94625
-2.09496
-2.26172
-2.40413
-2.33947
-2.50915
-2.4868
-2.34197
-2.37125
-2.14701
-2.10862
-2.05467
-1.99432
-1.92814
-1.86337
-1.80754
-1.7672
-1.74811
-1.75526
-1.79234
-2.11599
-2.13132
-2.14456
-2.15656
-2.22132
-2.32235
-2.42526
-2.52445
-2.67662
-2.79337
-2.75735
-2.67011
-2.45258
-2.35405
-2.25589
-2.17087
-2.09821
-2.03726
-1.99004
-1.95945
-1.94867
-1.96042
-1.99643
-2.23709
-2.24525
-2.25863
-2.28241
-2.33027
-2.40424
-2.50716
-2.66441
-2.9453
-3.32932
-3.46099
-3.10645
-2.69049
-2.57054
-2.43922
-2.33643
-2.25865
-2.20082
-2.16044
-2.13746
-2.13285
-2.14759
-2.18218
-2.34912
-2.35603
-2.3689
-2.39112
-2.4286
-2.48857
-2.58529
-2.76299
-3.17305
-3.87927
-4.19073
-3.69235
-3.29846
-2.78639
-2.59678
-2.48105
-2.40364
-2.35146
-2.31851
-2.30251
-2.30311
-2.32019
-2.35351
-2.45636
-2.46253
-2.47329
-2.49119
-2.51957
-2.56482
-2.64103
-2.78796
-3.15603
-3.87614
-4.35936
-3.955
-3.80539
-2.96606
-2.71711
-2.60012
-2.53179
-2.48959
-2.46541
-2.45653
-2.46198
-2.48114
-2.51351
-2.56104
-2.56573
-2.57423
-2.58702
-2.60652
-2.63683
-2.68623
-2.77195
-2.95705
-3.32967
-3.62936
-3.5677
-3.23349
-2.92126
-2.77514
-2.69429
-2.64623
-2.61768
-2.60356
-2.60192
-2.61198
-2.63311
-2.66485
-2.66591
-2.6691
-2.67464
-2.68286
-2.69475
-2.71311
-2.742
-2.7878
-2.86153
-2.97385
-3.05444
-3.03865
-2.95815
-2.8819
-2.82087
-2.7802
-2.75439
-2.74018
-2.73594
-2.74109
-2.75531
-2.77819
-2.80948
-2.77337
-2.77517
-2.77825
-2.78262
-2.78925
-2.79957
-2.81581
-2.84099
-2.87704
-2.91998
-2.95
-2.95533
-2.93709
-2.91109
-2.88878
-2.87301
-2.86395
-2.86138
-2.86541
-2.87625
-2.89389
-2.91815
-2.94895
-2.88469
-2.88559
-2.88685
-2.88878
-2.89216
-2.89783
-2.90674
-2.92009
-2.93867
-2.95951
-2.97572
-2.98342
-2.98383
-2.9806
-2.97739
-2.97628
-2.97823
-2.98392
-2.99405
-3.00913
-3.0293
-3.05446
-3.08461
-3.00052
-3.00079
-3.00112
-3.00182
-3.00349
-3.00666
-3.0117
-3.01924
-3.02962
-3.04171
-3.05318
-3.06245
-3.06972
-3.0758
-3.0819
-3.08893
-3.09763
-3.10874
-3.12304
-3.14101
-3.16277
-3.18826
-3.21756
-3.12092
-3.12087
-3.12084
-3.12117
-3.12218
-3.12409
-3.12728
-3.13221
-3.13911
-3.14771
-3.1572
-3.16693
-3.17679
-3.18693
-3.19749
-3.20881
-3.22139
-3.23588
-3.25283
-3.27249
-3.29494
-3.32025
-3.34855
-3.2457
-3.24557
-3.24561
-3.24596
-3.24672
-3.24811
-3.25053
-3.25439
-3.25994
-3.26714
-3.27575
-3.28557
-3.29642
-3.30816
-3.32065
-3.33405
-3.34873
-3.36512
-3.38342
-3.40375
-3.42621
-3.45097
-3.47812
-3.37468
-3.37464
-3.37475
-3.37516
-3.37592
-3.3773
-3.37961
-3.38319
-3.38823
-3.39483
-3.40303
-3.41275
-3.42377
-3.43586
-3.44897
-3.46321
-3.47881
-3.49593
-3.51462
-3.53491
-3.55696
-3.58087
-3.60667
-3.50742
-3.50749
-3.50771
-3.5082
-3.50915
-3.51075
-3.51322
-3.51673
-3.52152
-3.5278
-3.53568
-3.54507
-3.55576
-3.5676
-3.58067
-3.59504
-3.61077
-3.62786
-3.64631
-3.66615
-3.68746
-3.71024
-3.73447
-3.64311
-3.64329
-3.64367
-3.64435
-3.64548
-3.64722
-3.6497
-3.65313
-3.65777
-3.66383
-3.67137
-3.68027
-3.69041
-3.70181
-3.71455
-3.72865
-3.74401
-3.76061
-3.77842
-3.79749
-3.81776
-3.83918
-3.86171
-3.78097
-3.78126
-3.7818
-3.78263
-3.78384
-3.78556
-3.78799
-3.79139
-3.79595
-3.80181
-3.80893
-3.81725
-3.82681
-3.83768
-3.84989
-3.86339
-3.87806
-3.89387
-3.91079
-3.92879
-3.9478
-3.96772
-3.98858
-3.9207
-3.92101
-3.92158
-3.92243
-3.92364
-3.92537
-3.92784
-3.93123
-3.93565
-3.94114
-3.94771
-3.95541
-3.96435
-3.97459
-3.98609
-3.99877
-4.01256
-4.0274
-4.04323
-4.05998
-4.0776
-4.09601
-4.11526
-4.0618
-4.06206
-4.06255
-4.06335
-4.06455
-4.06631
-4.06877
-4.07201
-4.07609
-4.08108
-4.08707
-4.09419
-4.10251
-4.11205
-4.12273
-4.13449
-4.14726
-4.16099
-4.1756
-4.19103
-4.20723
-4.22414
-4.2418
-4.2036
-4.20382
-4.20427
-4.20504
-4.20622
-4.2079
-4.21017
-4.21309
-4.21676
-4.22128
-4.22679
-4.23338
-4.24107
-4.24984
-4.25963
-4.27037
-4.28202
-4.29455
-4.30788
-4.32196
-4.33675
-4.35217
-4.36825
-4.34584
-4.34607
-4.34652
-4.34725
-4.34834
-4.34983
-4.35183
-4.35442