/*--------------------------------*- C++ -*----------------------------------*\
| =========                 |                                                 |
| \\      /  F ield         | OpenFOAM: The Open Source CFD Toolbox           |
|  \\    /   O peration     | Version:  v1912                                 |
|   \\  /    A nd           | Website:  www.openfoam.com                      |
|    \\/     M anipulation  |                                                 |
\*---------------------------------------------------------------------------*/
FoamFile
{
    version     2.0;
    format      ascii;
    class       volScalarField;
    location    "0.15";
    object      p_rgh;
}
// * * * * * * * * * * * * * * * * * * * * * * * * * * * * * * * * * * * * * //

dimensions      [1 -1 -2 0 0 0 0];


internalField   nonuniform List<scalar> 
9072
(
2498.57
2498.6
2490.45
2477.68
2460.14
2437.29
2408.51
2373.22
2330.89
2281.15
2224.01
2160.15
2091.46
2021.89
1958.66
1914.52
1910.74
1981.54
2180.09
2565.24
3162.56
3765.94
3927.35
2496.88
2497.54
2489.4
2476.63
2459.07
2436.18
2407.33
2371.93
2329.44
2279.46
2221.96
2157.55
2088.05
2017.23
1952.11
1905.01
1896.55
1959.41
2140.86
2497.12
3047.86
3668.14
3963.6
2493.83
2495.08
2486.96
2474.18
2456.57
2433.58
2404.57
2368.92
2326.05
2275.51
2217.17
2151.52
2080.13
2006.46
1936.96
1883.05
1863.85
1909.9
2066.38
2387.55
2900.61
3520.4
4108.17
2489.46
2491.24
2483.15
2470.35
2452.67
2429.52
2400.26
2364.24
2320.79
2269.38
2209.75
2142.17
2067.89
1989.81
1913.57
1849.15
1813.37
1833.48
1950.81
2220.13
2694.58
3360.17
4057.76
2483.8
2486.07
2477.99
2465.17
2447.39
2424.04
2394.46
2357.93
2313.72
2261.16
2199.81
2129.67
2051.53
1967.61
1882.41
1803.98
1746.09
1731.15
1793.73
1985.66
2389.88
3085.41
3890.57
2476.91
2479.61
2471.53
2458.7
2440.79
2417.19
2387.22
2350.07
2304.92
2250.95
2187.5
2114.21
2031.34
1940.26
1844.07
1748.5
1663.55
1604.91
1595.89
1672.71
1934.05
2604.62
3562.63
2468.84
2471.92
2463.84
2450.98
2432.92
2409.04
2378.6
2340.75
2294.51
2238.91
2173
2096.04
2007.65
1908.28
1799.37
1684.07
1568.02
1458.1
1361.55
1277.12
1252.67
1742.75
2943.45
2459.64
2463.06
2454.97
2442.07
2423.84
2399.65
2368.71
2330.06
2282.62
2225.19
2156.54
2075.46
1980.92
1872.29
1749.27
1612.29
1461.95
1295.13
1101.41
811.711
274.512
334.06
1883.71
-3.99431
-3.96595
-3.89016
-3.76342
-3.59957
-3.41696
-3.23116
-3.05279
-2.88812
-2.74017
-2.60997
-2.49738
-2.40172
-2.32157
-2.25615
-2.20452
-2.16583
-2.1395
-2.125
-4.00516
-3.97341
-3.89731
-3.76854
-3.60222
-3.41755
-3.23032
-3.05109
-2.88598
-2.73786
-2.60765
-2.49521
-2.39961
-2.31959
-2.2543
-2.20278
-2.1642
-2.13789
-2.12344
-4.02526
-3.99144
-3.9143
-3.78053
-3.60832
-3.41877
-3.22818
-3.04696
-2.88084
-2.73237
-2.60218
-2.49008
-2.39465
-2.31496
-2.24998
-2.1987
-2.16032
-2.13416
-2.11978
-4.05598
-4.02154
-3.94223
-3.79968
-3.61774
-3.42036
-3.22449
-3.0402
-2.87258
-2.72361
-2.59352
-2.48177
-2.38683
-2.30768
-2.24317
-2.1923
-2.15423
-2.12829
-2.11403
-4.10209
-4.06679
-3.98271
-3.82632
-3.6302
-3.4219
-3.21889
-3.03054
-2.86101
-2.71147
-2.5816
-2.4704
-2.37617
-2.29775
-2.23391
-2.18359
-2.14595
-2.12031
-2.10622
-4.17763
-4.13372
-4.03797
-3.86069
-3.64521
-3.42275
-3.21084
-3.01761
-2.8459
-2.69583
-2.56648
-2.45593
-2.36265
-2.28518
-2.2222
-2.17259
-2.1355
-2.11025
-2.09637
-4.31182
-4.22824
-4.10998
-3.90279
-3.66199
-3.42204
-3.19962
-3.00093
-2.82697
-2.67651
-2.5479
-2.43835
-2.34628
-2.27
-2.20806
-2.15934
-2.12291
-2.09813
-2.08451
-4.57944
-4.35548
-4.20117
-3.95226
-3.67926
-3.41856
-3.18438
-2.97997
-2.80391
-2.65353
-2.52575
-2.41761
-2.32707
-2.25223
-2.19156
-2.14386
-2.10823
-2.08398
-2.07066
2440.1
2450.18
2442.04
2429.1
2410.63
2386
2354.35
2314.62
2265.51
2205.54
2133.07
2046.28
1943.22
1821.8
1679.46
1513.28
1316.66
1074.46
718.305
96.4137
4.17446
17.3974
685.129
2413.67
2425.14
2416.95
2403.86
2384.98
2359.61
2326.76
2285.11
2233.03
2168.53
2089.18
1992.07
1873.67
1729.38
1553.25
1336.13
1063.19
593.706
3.43408
1.10763
1.19574
1.9378
16.5608
2384.01
2396.4
2388.19
2374.93
2355.68
2329.65
2295.69
2252.25
2197.33
2128.38
2042.23
1934.85
1801.15
1634.4
1425.26
1162.39
642.487
3.07707
0.739377
0.885261
1.14431
1.74528
1.98577
2351.99
2364.89
2356.68
2343.3
2323.79
2297.3
2262.52
2217.66
2160.39
2087.65
1995.5
1878.94
1731.42
1544.26
1308.68
943.952
4.13065
0.497358
0.671686
0.950377
1.31201
1.78632
2.14398
2318.53
2331.57
2323.4
2309.98
2290.41
2263.76
2228.61
2182.99
2124.25
2048.88
1952.28
1828.52
1670.11
1466.9
1200.72
37.0901
0.370005
0.48475
0.733714
1.04717
1.42672
1.88093
2.34821
2284.51
2297.37
2289.29
2275.97
2256.59
2230.19
2195.29
2149.78
2090.8
2014.44
1915.56
1787.52
1621.3
1411.15
514.416
0.320279
0.243387
0.488825
0.763592
1.07449
1.43549
1.86598
2.41833
2250.76
2263.17
2255.26
2242.19
2223.3
2197.6
2163.64
2119.3
2061.6
1986.34
1887.82
1759.05
1590.37
1365.5
2.07141
-0.0497992
0.215843
0.480818
0.747025
1.03058
1.33859
1.66913
2.00556
2218.06
2229.79
2222.1
2209.47
2191.33
2166.8
2134.5
2092.44
2037.7
1965.99
1871.04
1744.47
1580.95
441.853
-0.231413
-0.0311158
0.220761
0.461006
0.699345
0.940933
1.18353
1.41249
1.58544
2187.03
2197.89
2190.49
2178.43
2161.28
2138.28
2108.29
2069.55
2019.45
1953.92
1866.62
1746.72
1580.75
0.610809
-0.212475
0.00514532
0.227666
0.434614
0.635293
0.830255
1.01209
1.16307
1.24964
2158.21
2168.06
2160.97
2149.57
2133.54
2112.31
2085.03
2050.35
2006.24
1949.43
1873.95
1770.41
354.751
-0.327954
-0.13573
0.0633654
0.236776
0.403909
0.564849
0.715628
0.846997
0.94297
0.980175
2131.99
2140.69
2133.92
2123.18
2108.24
2088.85
2064.5
2034.12
1996.61
1950.3
1889.07
1802.37
0.13772
-0.108449
8.18919e-05
0.119737
0.242863
0.36934
0.493318
0.606629
0.698946
0.757234
0.765467
2108.51
2116.14
2109.77
2099.63
2085.36
2067.41
2045.68
2018.07
1982.58
1943.68
1674.57
546.739
0.399275
0.196542
0.121437
0.158131
0.236435
0.329505
0.423325
0.507329
0.571231
0.60441
0.596083
1651.2
2091.39
2084.63
2069.43
2011.33
1857.5
1547.76
1020.21
411.731
37.8355
-0.0558513
0.178154
20.3449
0.192461
0.131596
0.151984
0.21038
0.283636
0.356832
0.419725
0.463689
0.480592
0.463346
0.127761
104.966
52.6204
0.207205
0.112809
-0.0445162
-0.222397
-0.216267
-0.289662
-0.404018
-0.281332
-0.139627
29.2184
0.00256135
0.0512133
0.104352
0.168062
0.234599
0.295788
0.34464
0.375037
0.38156
0.359807
0.140045
0.130653
0.115076
0.108775
0.0727749
-0.0141546
-0.120928
-0.215333
-0.34137
-0.494102
-0.537682
-0.428368
30.443
-0.175506
-0.0483995
0.0440148
0.121838
0.188719
0.24313
0.282424
0.303499
0.3033
0.279558
0.15099
0.139058
0.128379
0.111575
0.0769244
0.0159175
-0.0713992
-0.195369
-0.403972
-0.763298
-0.970593
-0.934972
6.97758
-0.318746
-0.130277
-0.00439549
0.0853823
0.15264
0.201599
0.233357
0.247299
0.242328
0.217683
0.166002
0.152751
0.143505
0.126751
0.0976652
0.050001
-0.0254368
-0.153124
-0.419821
-0.725226
0.229161
-1.46316
2.60261
-0.498705
-0.185603
-0.0290979
0.066648
0.130392
0.172493
0.196848
0.204541
0.19568
0.17045
0.18528
0.17144
0.163233
0.149322
0.126765
0.0910159
0.0329249
-0.0698168
-0.300835
-0.823049
0.414465
-0.83103
2.96394
-0.577073
-0.18623
-0.0204469
0.0685165
0.122357
0.154994
0.17134
0.172972
0.160588
0.134781
0.20585
0.192694
0.186182
0.175703
0.159928
0.135752
0.0972524
0.0332157
-0.0892798
-0.366325
-0.770634
-0.721692
-0.689983
-0.268979
-0.0799672
0.02641
0.0883773
0.125723
0.146689
0.154435
0.150144
0.134477
0.108001
0.224764
0.213669
0.209305
0.202479
0.192667
0.17795
0.155002
0.118511
0.0609591
-0.0335477
-0.143561
-0.17719
-0.122415
-0.0365052
0.0329661
0.0825286
0.115196
0.134894
0.144009
0.143505
0.133773
0.115176
0.0880697
0.240464
0.231944
0.229504
0.225829
0.220498
0.21223
0.199289
0.178955
0.148446
0.107477
0.0681523
0.0503212
0.0577992
0.0818298
0.106983
0.126049
0.138403
0.144209
0.143511
0.136091
0.121839
0.100862
0.0733196
0.251896
0.246162
0.245078
0.243562
0.241012
0.236592
0.229438
0.218479
0.20247
0.18203
0.162676
0.150596
0.146894
0.148848
0.152417
0.154756
0.154421
0.150689
0.142861
0.130296
0.112666
0.0899852
0.0623315
0.258928
0.255796
0.255506
0.255062
0.253954
0.251583
0.247534
0.241323
0.232343
0.220862
0.208784
0.198323
0.190165
0.183618
0.17766
0.171191
0.163413
0.153616
0.140998
0.124896
0.105022
0.0813921
0.0540074
0.261396
0.260733
0.260808
0.260703
0.260066
0.258632
0.256141
0.252139
0.246226
0.238398
0.229236
0.219582
0.209809
0.199806
0.189501
0.178605
0.166731
0.15328
0.137609
0.119325
0.0982763
0.0744047
0.0476072
0.259729
0.261216
0.261281
0.261093
0.260557
0.259525
0.257674
0.254574
0.249881
0.243485
0.235549
0.226314
0.215958
0.204654
0.192528
0.179613
0.165638
0.150145
0.13281
0.113506
0.0921339
0.0685431
0.0425806
0.253974
0.257386
0.257364
0.257114
0.256547
0.255518
0.253717
0.250802
0.246513
0.240702
0.233297
0.224315
0.213912
0.202336
0.189734
0.176095
0.161205
0.144854
0.126947
0.107471
0.086321
0.0633561
0.0384794
0.244893
0.24978
0.249652
0.249316
0.248621
0.247372
0.245361
0.242395
0.238271
0.232762
0.225683
0.217025
0.206957
0.195687
0.183253
0.169538
0.154487
0.138074
0.120307
0.101178
0.0806034
0.0585553
0.0350317
0.233269
0.239236
0.238966
0.23846
0.237572
0.236153
0.234063
0.231138
0.22714
0.221808
0.215
0.206761
0.19723
0.186469
0.174409
0.160971
0.14625
0.130265
0.113061
0.0946234
0.0749413
0.0540912
0.0321049
0.219652
0.226533
0.226119
0.225441
0.224433
0.222987
0.22094
0.218061
0.214104
0.208896
0.202402
0.194676
0.185741
0.175538
0.163996
0.151132
0.137035
0.121789
0.105419
0.0879542
0.0694374
0.0499726
0.0295681
0.204333
0.211982
0.211549
0.210848
0.209833
0.208386
0.206313
0.203404
0.199504
0.194548
0.188525
0.181398
0.173087
0.163502
0.152624
0.140522
0.12728
0.112961
0.0976201
0.0813218
0.0641243
0.046113
0.0272671
0.188026
0.196102
0.195732
0.195101
0.194119
0.192654
0.190561
0.187721
0.184063
0.179537
0.17406
0.16752
0.159807
0.150872
0.140752
0.129524
0.117254
0.103996
0.0898186
0.0747894
0.0589649
0.0424148
0.0251144
0.17118
0.179516
0.179187
0.178589
0.177629
0.17621
0.174245
0.171658
0.168375
0.164295
0.159294
0.153256
0.146114
0.137875
0.12859
0.118319
0.107114
0.0950205
0.0820843
0.068371
0.0539263
0.0388236
0.0230582
0.153934
0.162469
0.162133
0.161548
0.160648
0.159366
0.157631
0.155353
0.152423
0.148723
0.144146
0.138621
0.132128
0.124689
0.116333
0.107098
0.0970207
0.0861316
0.0744605
0.0620623
0.0489837
0.0353111
0.0210595
0.136428
0.145047
0.14473
0.144202
0.143418
0.142315
0.140811
0.138806
0.136193
0.132876
0.128787
0.123885
0.118152
0.111592
0.104213
0.0960296
0.0870691
0.0773573
0.0669241
0.0558187
0.0440937
0.0318388
0.0190783
0.118942
0.127548
0.127281
0.126847
0.1262
0.125268
0.123974
0.122236
0.119966
0.117095
0.113567
0.109344
0.104396
0.0987081
0.0922742
0.0850997
0.0772054
0.0686242
0.059399
0.0495747
0.0392023
0.0283635
0.0170921
0.101412
0.110107
0.109912
0.109579
0.109061
0.108297
0.107224
0.105777
0.103888
0.101492
0.0985361
0.0949756
0.0907765
0.0859155
0.0803813
0.0741794
0.067328
0.0598655
0.051847
0.0433099
0.0342947
0.0248731
0.0150883
0.0835541
0.0924952
0.0923671
0.0921365
0.091761
0.0911908
0.0903716
0.0892482
0.0877619
0.0858516
0.0834623
0.0805521
0.0770853
0.0730366
0.0683977
0.0631727
0.0573813
0.0510608
0.0442631
0.0370253
0.0293737
0.0213698
0.0130664
0.0651942
0.0744263
0.0743714
0.0742557
0.0740474
0.073707
0.0731838
0.0724233
0.0713698
0.069969
0.0681701
0.065931
0.0632173
0.0600074
0.056291
0.0520724
0.0473716
0.0422192
0.0366558
0.0307217
0.0244356
0.017848
0.0110177
0.0463788
0.0558565
0.0558839
0.0559049
0.0558942
0.0558174
0.0556256
0.0552635
0.0546809
0.0538288
0.0526582
0.0511255
0.0492006
0.0468634
0.0441008
0.0409165
0.0373269
0.0333557
0.0290328
0.0243981
0.019473
0.0142914
0.00891334
0.0273178
0.036932
0.0370485
0.0372231
0.0374314
0.037639
0.0378008
0.0378655
0.0377846
0.0375101
0.036995
0.0361981
0.0350886
0.0336468
0.0318593
0.0297226
0.0272494
0.0244592
0.0213749
0.0180317
0.0144564
0.0106706
0.00672934
0.0080443
0.0177478
0.0179412
0.0182782
0.0187235
0.0192382
0.0197789
0.0202967
0.0207406
0.0210639
0.0212232
0.0211777
0.0208965
0.0203601
0.0195539
0.0184701
0.017114
0.0155002
0.0136481
0.0115856
0.00934231
0.00694133
0.004431
-0.0112773
-0.00163679
-0.00140517
-0.000901106
-0.000206963
0.000626982
0.00155624
0.00253456
0.00351354
0.00444821
0.00529587
0.00601585
0.00657626
0.00695579
0.00713881
0.00711415
0.00687938
0.00644256
0.00581667
0.00501967
0.00408725
0.00305831
0.00197848
95.5367
-4.57986
-4.99838
-5.85716
212.96
-4.25015
-5.03434
-5.49791
558.097
-6.09916
-6.93835
-7.42666
355.081
106.359
-10.5387
-11.3188
5.36087
103.504
8.28434
-12.2881
3.04027
3.07662
6.05306
4.1728
2.17121
2.05247
1.60138
1.21685
1.60317
1.52604
1.38928
1.24643
1.22754
1.16733
1.072
0.941626
0.939553
0.884465
0.803522
0.695089
0.716721
0.666417
0.597829
0.5106
0.54591
0.501289
0.443651
0.373286
0.415169
0.376115
0.327646
0.270256
0.314961
0.280858
0.239812
0.192285
0.238371
0.20844
0.173216
0.133112
0.179724
0.153174
0.122557
0.0881791
0.135147
0.111291
0.084256
0.0542852
0.101571
0.0798045
0.0555168
0.0289517
0.0763673
0.0562574
0.0341934
0.0103626
0.0576999
0.0389409
0.0186963
-0.00291518
0.0441032
0.0264883
0.00772151
-0.0120949
0.0342733
0.0176735
0.000152047
-0.0181609
0.0271376
0.0114912
-0.00487984
-0.0218383
0.0219409
0.00721051
-0.00803612
-0.0237087
0.0181708
0.00436345
-0.00977863
-0.0242546
0.0154714
0.00261675
-0.0104907
-0.0239065
0.013571
0.0016552
-0.0105195
-0.0229837
0.0122201
0.00118678
-0.01012
-0.0216763
0.0111902
0.000989873
-0.00945969
-0.0201115
0.0103266
0.000945919
-0.00863346
-0.0183839
0.00959462
0.00101704
-0.00772786
-0.0166179
0.00893723
0.00113517
-0.00681156
-0.0148766
0.0083014
0.00124501
-0.00593342
-0.0131965
0.00764897
0.00132574
-0.00508979
-0.0115576
0.0069894
0.00140321
-0.00425188
-0.00994175
0.00630458
0.00144862
-0.00345783
-0.0083844
0.0056046
0.00148218
-0.00267719
-0.00685413
0.0048709
0.00146675
-0.00196929
-0.00541762
0.00406414
0.00137216
-0.00134127
-0.00406548
0.00317555
0.00119408
-0.000801313
-0.00280815
0.00216748
0.000890887
-0.000394113
-0.00168463
0.00100931
0.000454572
-0.00010003
-0.000660289
-5.04005
-4.60595
-4.35001
-4.02463
-3.69976
-3.4084
-3.15803
-2.94653
-2.76825
-2.61867
-2.49255
-2.38677
-2.29862
-2.226
-2.16723
-2.12108
-2.08662
-2.06319
-2.05031
-5.55743
-5.22854
-4.68336
-4.15337
-3.71325
-3.36408
-3.0881
-2.86949
-2.69041
-2.54428
-2.42361
-2.3236
-2.24086
-2.173
-2.11822
-2.0753
-2.04327
-2.02149
-2.00952
-7.40753
-6.20178
-5.0564
-4.23014
-3.66214
-3.26547
-2.9766
-2.7577
-2.58666
-2.44967
-2.33815
-2.24651
-2.17108
-2.10933
-2.0596
-2.02065
-1.99158
-1.9718
-1.96093
-10.9285
-7.49377
-5.28055
-4.13757
-3.49432
-3.08774
-2.81086
-2.60985
-2.45642
-2.33508
-2.2369
-2.15644
-2.09029
-2.03601
-1.99228
-1.95798
-1.93234
-1.91487
-1.90526
-12.4705
-8.00163
-4.93544
-3.74294
-3.15763
-2.81582
-2.58959
-2.42644
-2.30171
-2.20254
-2.12174
-2.05505
-1.99975
-1.95427
-1.91738
-1.88829
-1.86647
-1.85157
-1.84335
-1.57468
-5.79891
-3.61694
-2.99112
-2.66891
-2.46739
-2.3245
-2.21539
-2.12806
-2.05607
-1.9957
-1.94465
-1.90163
-1.86569
-1.8362
-1.81275
-1.79503
-1.78286
-1.77613
2.28026
-1.4299
-1.9982
-2.13117
-2.12746
-2.08788
-2.03915
-1.99011
-1.94382
-1.90122
-1.86256
-1.82819
-1.79801
-1.77203
-1.75024
-1.73261
-1.71912
-1.70978
-1.70458
0.985903
-0.211686
-1.04741
-1.45397
-1.64524
-1.72853
-1.76013
-1.76577
-1.758
-1.74386
-1.7267
-1.70871
-1.69124
-1.67516
-1.66102
-1.64919
-1.63992
-1.6334
-1.62973
0.701814
0.0316201
-0.591224
-1.01364
-1.27022
-1.4208
-1.50709
-1.55488
-1.57947
-1.59002
-1.59209
-1.5892
-1.58363
-1.57691
-1.57006
-1.56379
-1.55858
-1.55477
-1.55259
0.508964
0.0697176
-0.377818
-0.738512
-0.997412
-1.17327
-1.28958
-1.36527
-1.4137
-1.44394
-1.4621
-1.47226
-1.47723
-1.47896
-1.47878
-1.47764
-1.47619
-1.47492
-1.47412
0.368315
0.05508
-0.275738
-0.569708
-0.804476
-0.980829
-1.10884
-1.19997
-1.26401
-1.30854
-1.33917
-1.35994
-1.37378
-1.38278
-1.38844
-1.39184
-1.39378
-1.39479
-1.39524
0.262515
0.0271898
-0.225711
-0.463816
-0.668098
-0.833064
-0.961281
-1.05861
-1.13138
-1.18524
-1.2248
-1.25366
-1.27455
-1.28952
-1.30008
-1.30736
-1.31221
-1.31522
-1.31677
0.181991
-0.00155145
-0.200643
-0.395031
-0.57021
-0.719353
-0.841483
-0.938901
-1.01523
-1.07432
-1.11967
-1.15425
-1.18043
-1.20005
-1.21453
-1.22499
-1.23226
-1.23695
-1.23942
0.120359
-0.0269946
-0.187721
-0.348347
-0.498147
-0.630811
-0.743917
-0.837743
-0.914051
-0.975237
-1.02381
-1.06207
-1.09192
-1.11493
-1.13239
-1.14533
-1.15453
-1.16057
-1.16379
0.0732189
-0.0479871
-0.18048
-0.314919
-0.443419
-0.56063
-0.663748
-0.75201
-0.825973
-0.887019
-0.936842
-0.977077
-1.0092
-1.03449
-1.05407
-1.06884
-1.0795
-1.08656
-1.09036
0.0373747
-0.064389
-0.17559
-0.289548
-0.40041
-0.503814
-0.597045
-0.67884
-0.749094
-0.808512
-0.85811
-0.898986
-0.932229
-0.958862
-0.979799
-0.995805
-1.00749
-1.01529
-1.01951
0.010437
-0.0765776
-0.17137
-0.269109
-0.365408
-0.456759
-0.540689
-0.615809
-0.681684
-0.738522
-0.786843
-0.827345
-0.860807
-0.888004
-0.90966
-0.926397
-0.938717
-0.946994
-0.951493
-0.00946312
-0.0850799
-0.166953
-0.251698
-0.335949
-0.41687
-0.492322
-0.560976
-0.622202
-0.675887
-0.722228
-0.761633
-0.794628
-0.82178
-0.843635
-0.860679
-0.873311
-0.88184
-0.886492
-0.0237916
-0.0902093
-0.161905
-0.23614
-0.310378
-0.382331
-0.450202
-0.512763
-0.569308
-0.619555
-0.663491
-0.701311
-0.733344
-0.759982
-0.781623
-0.798624
-0.811297
-0.819891
-0.824593
-0.0336402
-0.0927425
-0.156125
-0.221707
-0.287614
-0.351853
-0.412983
-0.469894
-0.521898
-0.568624
-0.609926
-0.645851
-0.676577
-0.702357
-0.72346
-0.740144
-0.752642
-0.76115
-0.765819
-0.0400172
-0.0931196
-0.149666
-0.208113
-0.266901
-0.324497
-0.379635
-0.431377
-0.479078
-0.522328
-0.560902
-0.594752
-0.623946
-0.648622
-0.66895
-0.685108
-0.697267
-0.705573
-0.710143
-0.0437097
-0.0917748
-0.142613
-0.19504
-0.24778
-0.29958
-0.349397
-0.396444
-0.440122
-0.480017
-0.515866
-0.547559
-0.575084
-0.598492
-0.617878
-0.633361
-0.64506
-0.653078
-0.657498
-0.0453119
-0.0890862
-0.135097
-0.18239
-0.229901
-0.276616
-0.3217
-0.364483
-0.404448
-0.441147
-0.474336
-0.503857
-0.529637
-0.551674
-0.57001
-0.584715
-0.595869
-0.603536
-0.607772
-0.0453324
-0.0854073
-0.127268
-0.170098
-0.213028
-0.255261
-0.296128
-0.335058
-0.371569
-0.405274
-0.435903
-0.463273
-0.487283
-0.507898
-0.525123
-0.53899
-0.54954
-0.556809
-0.560838
-0.0442404
-0.0810635
-0.119262
-0.158142
-0.197022
-0.235284
-0.272379
-0.307811
-0.341144
-0.372025
-0.400195
-0.425468
-0.447726
-0.466909
-0.482999
-0.495994
-0.505904
-0.512748
-0.516549
-0.0424238
-0.0762946
-0.111181
-0.146525
-0.181803
-0.216522
-0.250216
-0.282452
-0.312843
-0.341074
-0.366902
-0.390153
-0.410702
-0.428472
-0.443421
-0.455529
-0.464781
-0.471183
-0.474755
-0.0401301
-0.0712479
-0.103104
-0.135262
-0.167307
-0.198834
-0.229434
-0.258733
-0.286395
-0.312145
-0.335761
-0.357079
-0.375977
-0.392365
-0.406184
-0.4174
-0.425992
-0.431945
-0.435271
-0.0375028
-0.0660319
-0.0951033
-0.124365
-0.153478
-0.182094
-0.209858
-0.236447
-0.261577
-0.285009
-0.306543
-0.326026
-0.343336
-0.35838
-0.371093
-0.38143
-0.38936
-0.394863
-0.397925
-0.0346569
-0.0607516
-0.0872473
-0.113851
-0.14027
-0.166201
-0.191346
-0.21543
-0.238208
-0.259473
-0.279049
-0.296792
-0.312579
-0.326323
-0.33796
-0.347434
-0.354711
-0.359766
-0.362581
-0.0317033
-0.0555049
-0.0795948
-0.103725
-0.127638
-0.151074
-0.173786
-0.195541
-0.21613
-0.235367
-0.253096
-0.269185
-0.28352
-0.296015
-0.306608
-0.315243
-0.321882
-0.326499
-0.329074
-0.028756
-0.0503678
-0.0721795
-0.0939758
-0.115537
-0.136643
-0.157083
-0.176662
-0.1952
-0.212533
-0.228515
-0.243033
-0.255984
-0.267283
-0.276873
-0.284696
-0.290717
-0.294909
-0.297246
-0.0258694
-0.0453712
-0.0650048
-0.0845837
-0.103926
-0.122843
-0.141153
-0.158689
-0.175295
-0.190827
-0.205156
-0.218181
-0.229811
-0.239969
-0.248594
-0.255637
-0.261062
-0.264839
-0.266945
-0.0230628
-0.0405161
-0.0580585
-0.0755273
-0.0927678
-0.109616
-0.125915
-0.141521
-0.156297
-0.170121
-0.182884
-0.194489
-0.204858
-0.213921
-0.22162
-0.227912
-0.232762
-0.236141
-0.238025
-0.0203218
-0.0357948
-0.0513312
-0.0667876
-0.0820265
-0.0969059
-0.111295
-0.125067
-0.138104
-0.150305
-0.161573
-0.171821
-0.180982
-0.188995
-0.195806
-0.201377
-0.205673
-0.208667
-0.210336
-0.0176421
-0.0312084
-0.0448161
-0.0583411
-0.0716621
-0.0846602
-0.0972244
-0.109246
-0.120624
-0.13127
-0.141104
-0.150051
-0.158054
-0.165057
-0.171016
-0.175892
-0.179653
-0.182272
-0.183734
-0.0150386
-0.0267554
-0.0384987
-0.0501587
-0.0616346
-0.0728273
-0.0836397
-0.0939812
-0.103765
-0.112918
-0.121373
-0.129071
-0.135956
-0.141984
-0.147117
-0.151322
-0.154563
-0.15682
-0.158081
-0.0125005
-0.0224267
-0.0323618
-0.042215
-0.0519067
-0.0613547
-0.0704743
-0.0791922
-0.0874388
-0.0951523
-0.102278
-0.108765
-0.114569
-0.119652
-0.123981
-0.127532
-0.130271
-0.132179
-0.133246
-0.0100634
-0.0182281
-0.0263955
-0.0344888
-0.0424429
-0.0501925
-0.0576681
-0.0648107
-0.0715671
-0.0778848
-0.0837169
-0.0890262
-0.0937794
-0.0979446
-0.101494
-0.104405
-0.106653
-0.108221
-0.109098
-0.00772701
-0.0141583
-0.0205863
-0.0269531
-0.0332058
-0.0392933
-0.0451639
-0.0507701
-0.0560697
-0.0610232
-0.0655951
-0.0697568
-0.0734828
-0.0767503
-0.0795363
-0.0818211
-0.0835881
-0.0848214
-0.0855094
-0.00549924
-0.0102163
-0.0149233
-0.0195846
-0.0241611
-0.0286131
-0.0329045
-0.0369997
-0.0408671
-0.0444824
-0.0478213
-0.0508586
-0.0535749
-0.0559584
-0.0579943
-0.0596636
-0.0609561
-0.0618606
-0.0623617
-0.00339619
-0.00639833
-0.00939521
-0.0123614
-0.015273
-0.0181044
-0.0208325
-0.0234339
-0.0258892
-0.0281846
-0.0303045
-0.0322311
-0.0339519
-0.0354646
-0.0367582
-0.037817
-0.0386389
-0.0392157
-0.0395317
-0.00140171
-0.00269306
-0.00398279
-0.00525683
-0.00650629
-0.00772158
-0.00889321
-0.0100096
-0.0110622
-0.0120459
-0.0129536
-0.0137773
-0.0145134
-0.015162
-0.0157162
-0.0161685
-0.0165206
-0.0167682
-0.0169014
2500.2
2495.16
2484.63
2469.54
2449.42
2423.68
2391.72
2352.97
2306.96
2253.49
2192.84
2126.22
2056.43
1988.84
1933.12
1905.82
1934
2061.84
2345.67
2841.23
3494.05
3932.97
4068.31
2499.17
2494.1
2483.59
2468.48
2448.33
2422.54
2390.49
2351.6
2305.4
2251.63
2190.54
2123.26
2052.46
1983.34
1925.25
1894.24
1916.45
2031.58
2294.15
2750.94
3368.93
3896.74
4154.93
2496.76
2491.64
2481.14
2466.01
2445.79
2419.86
2387.61
2348.42
2301.76
2247.3
2185.2
2116.38
2043.27
1970.62
1907.08
1867.52
1876.26
1970.94
2203.24
2621.81
3209.13
3828.96
4389.47
2493
2487.81
2477.33
2462.15
2441.82
2415.69
2383.14
2343.48
2296.1
2240.59
2176.91
2105.73
2029.05
1950.96
1879.03
1826.27
1814.22
1876.81
2062.69
2429.83
3010.88
3725.63
4388.17
2487.92
2482.63
2472.17
2456.94
2436.45
2410.07
2377.11
2336.83
2288.51
2231.59
2165.82
2091.5
2010.08
1924.77
1841.65
1771.3
1731.43
1749.97
1869.31
2154.72
2702.04
3514.88
4199.65
2481.57
2476.16
2465.72
2450.42
2429.75
2403.05
2369.59
2328.55
2279.09
2220.45
2152.09
2073.92
1986.68
1892.52
1795.7
1703.86
1629.72
1592.28
1620.42
1767.75
2206.02
3106.86
3887.68
2474
2468.46
2458.02
2442.64
2421.75
2394.69
2360.66
2318.74
2267.94
2207.3
2135.94
2053.27
1959.28
1854.87
1742.22
1625.71
1511.88
1407.6
1319.36
1239.15
1382.53
2334.34
3335.62
2465.28
2459.56
2449.15
2433.66
2412.54
2385.08
2350.41
2307.51
2255.23
2192.34
2117.62
2029.92
1928.39
1812.58
1682.46
1538.86
1381.02
1203
979.751
530.64
173.661
980.154
2339.59
-3.98443
-3.93479
-3.83252
-3.68498
-3.50953
-3.32368
-3.14056
-2.96849
-2.81195
-2.67284
-2.5515
-2.44765
-2.35974
-2.28708
-2.22867
-2.1836
-2.15116
-2.13079
-2.12209
-3.99127
-3.94238
-3.83879
-3.68883
-3.51108
-3.32347
-3.13923
-2.96653
-2.8097
-2.67052
-2.54921
-2.44547
-2.3577
-2.28517
-2.22688
-2.18191
-2.14954
-2.12921
-2.12056
-4.00802
-3.96056
-3.85356
-3.69783
-3.51455
-3.32282
-3.13594
-2.9618
-2.80433
-2.665
-2.54382
-2.44033
-2.3529
-2.2807
-2.22268
-2.17794
-2.14574
-2.12551
-2.11691
-4.03584
-3.99075
-3.87754
-3.71199
-3.51974
-3.32147
-3.13049
-2.95413
-2.79572
-2.65623
-2.5354
-2.43226
-2.34536
-2.27366
-2.21609
-2.17171
-2.13977
-2.11972
-2.11119
-4.07768
-4.03538
-3.91156
-3.73126
-3.52626
-3.319
-3.12253
-2.9433
-2.78374
-2.64414
-2.52384
-2.42123
-2.33506
-2.26407
-2.20711
-2.16323
-2.13166
-2.11185
-2.10342
-4.14145
-4.09852
-3.95665
-3.75541
-3.53349
-3.31481
-3.11162
-2.92901
-2.76821
-2.62863
-2.50896
-2.40723
-2.32203
-2.25195
-2.19578
-2.15253
-2.12143
-2.10191
-2.0936
-4.23539
-4.18331
-4.01362
-3.78392
-3.54055
-3.30808
-3.09717
-2.91091
-2.74893
-2.60971
-2.49082
-2.39024
-2.30627
-2.23732
-2.18211
-2.13963
-2.1091
-2.08994
-2.08179
-4.3646
-4.29355
-4.08328
-3.81579
-3.54612
-3.29779
-3.07847
-2.88856
-2.7257
-2.5871
-2.46934
-2.37027
-2.28779
-2.22021
-2.16615
-2.12458
-2.09472
-2.07598
-2.06801
2452.5
2446.62
2436.23
2420.59
2399.13
2371.11
2335.57
2291.32
2236.98
2170.98
2091.58
1996.9
1884.96
1753.4
1599.62
1419.41
1203.22
919.694
400.816
5.73265
6.65924
68.6141
659.575
2427.64
2421.54
2411.09
2395.18
2373.16
2344.19
2307.13
2260.49
2202.47
2130.87
2043.05
1935.79
1805.1
1645.74
1450.54
1208.61
890.339
131.001
1.38717
1.09774
1.43173
2.89958
617.511
2399.11
2392.79
2382.27
2366.1
2343.57
2313.75
2275.27
2226.37
2164.79
2087.68
1991.48
1871.68
1722.38
1535.88
1301.89
994.741
88.439
0.927677
0.793336
1.016
1.3527
1.75993
615.424
2367.76
2361.29
2350.72
2334.35
2311.49
2281.04
2241.48
2190.75
2126.18
2044.28
1940.64
1809.51
1643.54
1432.59
1163.86
229.442
0.78644
0.566508
0.799432
1.12547
1.55908
2.06637
25.5705
2334.52
2328
2317.42
2301.01
2278.05
2247.36
2207.26
2155.46
2088.9
2003.57
1894.24
1754.21
1574.39
1347.26
714.594
1.15113
0.393735
0.598534
0.882885
1.22898
1.65655
2.16808
2.68849
2300.3
2293.86
2283.35
2267.08
2244.35
2213.92
2174.02
2122.19
2055.08
1968.2
1855.62
1710.08
1521.86
1271.95
5.33698
0.115522
0.360916
0.623279
0.913451
1.24802
1.64036
2.11498
2.69452
2266.01
2259.76
2249.42
2233.52
2211.38
2181.77
2142.93
2092.35
2026.47
1940.44
1827.7
1679.59
1491.59
437.311
-0.041859
0.0866375
0.349782
0.612277
0.886058
1.18127
1.50262
1.83901
2.14311
2232.45
2226.48
2216.44
2201.14
2179.94
2151.73
2114.85
2066.89
2004.28
1921.88
1812.75
1666.51
1471.97
1.19102
-0.155942
0.0927713
0.341825
0.580041
0.819625
1.06264
1.3017
1.51142
1.62365
2200.31
2194.7
2185.06
2170.53
2150.58
2124.26
2090.16
2046.15
1988.96
1913.35
1811.33
1673.84
434.007
-0.313075
-0.108618
0.12132
0.332219
0.535492
0.733754
0.923644
1.0931
1.21761
1.25326
2170.2
2164.97
2155.82
2142.16
2123.61
2099.5
2068.73
2029.65
1979.83
1914.77
1825.4
1691.06
0.233155
-0.230076
-0.0352127
0.150709
0.321146
0.485273
0.641953
0.78459
0.900663
0.970731
0.9679
2142.51
2137.69
2129.06
2116.25
2099.12
2077.35
2050.16
2016.31
1974.88
1922.23
1853.13
494.549
-0.16873
-0.057998
0.0621079
0.180189
0.305786
0.432107
0.551879
0.656175
0.733255
0.768708
0.745461
2117.61
2113.29
2105.2
2092.99
2076.84
2057.07
2033
2000.98
1963.53
1876.21
1267.97
134.877
0.271682
0.134173
0.132659
0.194465
0.282124
0.376969
0.467203
0.542434
0.592331
0.606104
0.573126
2092.09
2088.16
2079
2048.54
1951.01
1726.19
1319.39
693.27
196.461
-0.120162
-0.0101267
0.305354
0.214559
0.14134
0.135132
0.17843
0.24631
0.320959
0.390112
0.444598
0.476001
0.476653
0.440041
89.0986
83.2255
20.967
0.183449
0.0347402
-0.132027
-0.274438
-0.209776
-0.379452
-0.3571
-0.212263
1.21488
0.0648913
0.0210787
0.0750228
0.135379
0.201559
0.266328
0.32216
0.362501
0.381587
0.374438
0.337358
0.1389
0.123569
0.110328
0.0983286
0.0335698
-0.0674611
-0.170374
-0.269565
-0.421724
-0.538417
-0.502424
-0.415196
-0.197692
-0.09916
-0.000998826
0.0840201
0.156683
0.217636
0.264853
0.295443
0.306225
0.294475
0.258464
0.142996
0.134841
0.121458
0.0976781
0.0498218
-0.0241532
-0.127074
-0.284326
-0.565208
-0.944639
-1.05562
-0.674231
-0.310402
-0.190452
-0.0591279
0.0436583
0.121434
0.17927
0.219647
0.242623
0.247239
0.232492
0.197908
0.156162
0.149249
0.136386
0.114165
0.0766812
0.0167066
-0.080013
-0.25771
-0.665758
0.573887
-0.740205
-1.18257
7.02473
-0.281107
-0.0914933
0.0242337
0.101638
0.153824
0.186775
0.202768
0.202174
0.185094
0.151775
0.174118
0.167945
0.157184
0.139291
0.110904
0.0656588
-0.0105552
-0.157479
-0.525318
-0.141621
0.264146
0.627648
0.217032
-0.335586
-0.0866278
0.0303565
0.0986855
0.140891
0.165072
0.173945
0.168495
0.149335
0.116971
0.194636
0.189941
0.181442
0.168649
0.149154
0.118845
0.0694437
-0.0162803
-0.201375
-0.573955
-0.873473
-0.658605
-0.477821
-0.165586
-0.0194656
0.0613845
0.109443
0.137992
0.152114
0.153749
0.143696
0.122566
0.0908192
0.214957
0.211764
0.206226
0.198004
0.186118
0.16776
0.138867
0.0930711
0.0193485
-0.0923432
-0.172842
-0.157777
-0.0772808
-0.00103612
0.060001
0.100671
0.126479
0.140692
0.144929
0.139778
0.125556
0.10268
0.0713878
0.232696
0.230891
0.227819
0.223448
0.216812
0.206489
0.190256
0.16507
0.129027
0.0860888
0.0560635
0.0507337
0.0689739
0.0949698
0.11728
0.133056
0.142111
0.144681
0.140657
0.129811
0.112177
0.0879115
0.0571098
0.246557
0.245662
0.244394
0.242469
0.239091
0.233418
0.224514
0.211157
0.192579
0.171739
0.155526
0.147833
0.147424
0.150652
0.153857
0.154969
0.15302
0.147333
0.137198
0.122121
0.101949
0.0767877
0.0466408
0.255921
0.255654
0.255328
0.254625
0.252959
0.249786
0.244744
0.2372
0.226828
0.214738
0.20326
0.193993
0.186728
0.180644
0.174547
0.16751
0.158818
0.147708
0.133408
0.115437
0.0936693
0.0681846
0.0388866
0.260717
0.260771
0.260801
0.260471
0.259457
0.257547
0.254361
0.249434
0.242532
0.23393
0.224435
0.214711
0.204845
0.19471
0.184146
0.172829
0.160245
0.145756
0.128807
0.109152
0.086696
0.0613867
0.0330909
0.261139
0.261269
0.261223
0.260877
0.260119
0.258727
0.256305
0.252442
0.246892
0.239693
0.231082
0.221261
0.210418
0.198677
0.186183
0.172783
0.158108
0.141719
0.123411
0.103089
0.0806235
0.055869
0.0287155
0.257353
0.257394
0.257277
0.256873
0.256107
0.254734
0.252417
0.248839
0.243802
0.237197
0.228996
0.219275
0.208258
0.196166
0.183059
0.16882
0.153221
0.136098
0.117409
0.0971166
0.0750684
0.0511624
0.0253581
0.249803
0.249735
0.249517
0.249026
0.248077
0.246474
0.244009
0.240493