/*--------------------------------*- C++ -*----------------------------------*\
| =========                 |                                                 |
| \\      /  F ield         | OpenFOAM: The Open Source CFD Toolbox           |
|  \\    /   O peration     | Version:  v1912                                 |
|   \\  /    A nd           | Website:  www.openfoam.com                      |
|    \\/     M anipulation  |                                                 |
\*---------------------------------------------------------------------------*/
FoamFile
{
    version     2.0;
    format      ascii;
    class       surfaceScalarField;
    location    "0.15";
    object      phi;
}
// * * * * * * * * * * * * * * * * * * * * * * * * * * * * * * * * * * * * * //

dimensions      [0 3 -1 0 0 0 0];
oriented        oriented;


internalField   nonuniform List<scalar> 
17936
(
1.08731e-06
-2.19124e-06
1.10393e-06
-2.86233e-06
4.63948e-06
-1.77716e-06
-6.30175e-06
7.90197e-06
-1.60022e-06
-9.49286e-06
1.11004e-05
-1.60758e-06
-1.2734e-05
1.43959e-05
-1.66185e-06
-1.60867e-05
1.78079e-05
-1.72118e-06
-1.95615e-05
2.13498e-05
-1.78835e-06
-2.31753e-05
2.50399e-05
-1.86463e-06
-2.69455e-05
2.88936e-05
-1.9481e-06
-3.0885e-05
3.29201e-05
-2.03507e-06
-3.49984e-05
3.71181e-05
-2.11979e-06
-3.92775e-05
4.14721e-05
-2.19458e-06
-4.3696e-05
4.5941e-05
-2.24505e-06
-4.81956e-05
5.04454e-05
-2.24971e-06
-5.26699e-05
5.48435e-05
-2.17364e-06
-5.69334e-05
5.8897e-05
-1.96356e-06
-6.06772e-05
6.21988e-05
-1.52152e-06
-6.33595e-05
6.40182e-05
-6.58718e-07
-6.39215e-05
6.26391e-05
1.28236e-06
-5.96979e-05
5.44668e-05
5.23107e-06
-4.61204e-05
3.379e-05
1.23303e-05
-1.75634e-05
-5.66183e-08
1.762e-05
1.69661e-05
-2.51876e-05
8.22154e-06
3.297e-06
-4.40612e-06
1.10912e-06
-2.8894e-06
4.6808e-06
3.57266e-06
-5.36406e-06
-6.36058e-06
7.97628e-06
3.21849e-06
-4.8342e-06
-9.58172e-06
1.12041e-05
3.2321e-06
-4.85444e-06
-1.28523e-05
1.45283e-05
3.34038e-06
-5.01643e-06
-1.62331e-05
1.7968e-05
3.45878e-06
-5.19368e-06
-1.97351e-05
2.1537e-05
3.59291e-06
-5.39472e-06
-2.33757e-05
2.52535e-05
3.74516e-06
-5.62296e-06
-2.71721e-05
2.91332e-05
3.91175e-06
-5.87277e-06
-3.11375e-05
3.31855e-05
4.08544e-06
-6.13347e-06
-3.5277e-05
3.74103e-05
4.25481e-06
-6.38813e-06
-3.95838e-05
4.17934e-05
4.40466e-06
-6.61425e-06
-4.40336e-05
4.62969e-05
4.50658e-06
-6.76987e-06
-4.85723e-05
5.08462e-05
4.51814e-06
-6.79195e-06
-5.30988e-05
5.53059e-05
4.36941e-06
-6.57649e-06
-5.74368e-05
5.9452e-05
3.95592e-06
-5.97114e-06
-6.12985e-05
6.29054e-05
3.08653e-06
-4.69346e-06
-6.41785e-05
6.5003e-05
1.40999e-06
-2.23448e-06
-6.52261e-05
6.46924e-05
-1.54434e-06
2.07801e-06
-6.32544e-05
6.0859e-05
-6.85125e-06
9.24664e-06
-5.76595e-05
5.40712e-05
-1.76353e-05
2.12236e-05
-4.981e-05
4.27718e-05
-3.35789e-05
4.0617e-05
-3.16338e-05
1.6499e-05
-1.86518e-05
3.37867e-05
5.51936e-06
-6.63715e-06
1.11779e-06
-2.8885e-06
4.66739e-06
7.15011e-06
-8.92901e-06
-6.33743e-06
7.9464e-06
6.44707e-06
-8.05605e-06
-9.54697e-06
1.11652e-05
6.47495e-06
-8.09316e-06
-1.28091e-05
1.44803e-05
6.69034e-06
-8.36152e-06
-1.61797e-05
1.79092e-05
6.92617e-06
-8.65564e-06
-1.9671e-05
2.14675e-05
7.1942e-06
-8.99072e-06
-2.33012e-05
2.51742e-05
7.49862e-06
-9.37161e-06
-2.70884e-05
2.90455e-05
7.832e-06
-9.78909e-06
-3.10465e-05
3.30921e-05
8.18035e-06
-1.0226e-05
-3.51823e-05
3.73159e-05
8.52143e-06
-1.0655e-05
-3.94916e-05
4.17061e-05
8.82579e-06
-1.10403e-05
-4.39548e-05
4.62309e-05
9.03854e-06
-1.13147e-05
-4.85246e-05
5.08235e-05
9.07637e-06
-1.13753e-05
-5.31105e-05
5.53648e-05
8.80345e-06
-1.10578e-05
-5.75604e-05
5.96624e-05
8.02344e-06
-1.01254e-05
-6.16211e-05
6.33697e-05
6.36225e-06
-8.11081e-06
-6.482e-05
6.58653e-05
3.15356e-06
-4.19894e-06
-6.63785e-05
6.62113e-05
-2.46501e-06
2.63228e-06
-6.5181e-05
6.30708e-05
-1.16783e-05
1.37885e-05
-5.9662e-05
5.48523e-05
-2.57259e-05
3.05356e-05
-4.91179e-05
4.3486e-05
-4.48207e-05
5.04525e-05
-3.71849e-05
2.42116e-05
-4.84409e-05
6.14141e-05
7.75999e-06
-8.88812e-06
1.12813e-06
-2.88728e-06
4.64682e-06
1.0699e-05
-1.24585e-05
-6.30033e-06
7.89834e-06
9.66001e-06
-1.1258e-05
-9.49147e-06
1.11032e-05
9.70842e-06
-1.13202e-05
-1.27403e-05
1.4404e-05
1.00292e-05
-1.16929e-05
-1.60954e-05
1.78167e-05
1.03813e-05
-1.21026e-05
-1.95704e-05
2.1359e-05
1.07836e-05
-1.25722e-05
-2.31852e-05
2.50513e-05
1.12413e-05
-1.31073e-05
-2.69592e-05
2.8911e-05
1.17435e-05
-1.36953e-05
-3.0908e-05
3.29512e-05
1.22701e-05
-1.43134e-05
-3.50413e-05
3.71775e-05
1.27892e-05
-1.49255e-05
-3.93596e-05
4.15851e-05
1.3259e-05
-1.54845e-05
-4.38509e-05
4.61517e-05
1.36009e-05
-1.59017e-05
-4.84794e-05
5.08241e-05
1.36937e-05
-1.60384e-05
-5.3173e-05
5.55105e-05
1.33484e-05
-1.56859e-05
-5.78156e-05
6.0057e-05
1.22903e-05
-1.45317e-05
-6.21895e-05
6.41542e-05
9.95792e-06
-1.19226e-05
-6.58789e-05
6.72828e-05
5.40539e-06
-6.80934e-06
-6.82727e-05
6.87258e-05
-2.52114e-06
2.06808e-06
-6.84479e-05
6.71552e-05
-1.55194e-05
1.68121e-05
-6.44865e-05
6.00279e-05
-3.52071e-05
3.96658e-05
-5.33618e-05
4.43001e-05
-5.81302e-05
6.71919e-05
-3.37938e-05
2.08436e-05
-7.38577e-05
8.68079e-05
1.00216e-05
-1.1161e-05
1.1394e-06
-2.8843e-06
4.61968e-06
1.42065e-05
-1.59418e-05
-6.25195e-06
7.83562e-06
1.28493e-05
-1.44329e-05
-9.41902e-06
1.10224e-05
1.2928e-05
-1.45314e-05
-1.26508e-05
1.43052e-05
1.33521e-05
-1.50065e-05
-1.59871e-05
1.7699e-05
1.38192e-05
-1.55311e-05
-1.94438e-05
2.12241e-05
1.43566e-05
-1.6137e-05
-2.3043e-05
2.49028e-05
1.497e-05
-1.68298e-05
-2.6806e-05
2.87549e-05
1.56452e-05
-1.75941e-05
-3.07514e-05
3.27971e-05
1.63572e-05
-1.84029e-05
-3.48931e-05
3.70398e-05
1.70661e-05
-1.92128e-05
-3.92376e-05
4.14857e-05
1.77204e-05
-1.99685e-05
-4.3782e-05
4.61228e-05
1.82216e-05
-2.05625e-05
-4.85021e-05
5.0914e-05
1.84156e-05
-2.08275e-05
-5.33507e-05
5.5802e-05
1.80786e-05
-2.05298e-05
-5.82501e-05
6.0667e-05
1.68591e-05
-1.92759e-05
-6.30151e-05
6.52535e-05
1.40195e-05
-1.62579e-05
-6.73398e-05
6.92328e-05
8.44361e-06
-1.03366e-05
-7.08839e-05
7.22003e-05
-1.21329e-06
-1.03091e-07
-7.29781e-05
7.28462e-05
-1.75778e-05
1.77097e-05
-7.12451e-05
6.74433e-05
-4.38625e-05
4.76642e-05
-6.06289e-05
5.00845e-05
-7.71007e-05
8.76452e-05
-3.58338e-05
1.97355e-05
-0.000101116
0.000117214
1.23075e-05
-1.34625e-05
1.15506e-06
-2.88179e-06
4.5886e-06
1.76637e-05
-1.93705e-05
-6.1959e-06
7.76312e-06
1.60086e-05
-1.75759e-05
-9.33559e-06
1.09297e-05
1.61303e-05
-1.77244e-05
-1.25485e-05
1.41931e-05
1.66562e-05
-1.83007e-05
-1.58652e-05
1.75677e-05
1.72385e-05
-1.8941e-05
-1.93035e-05
2.10758e-05
1.79137e-05
-1.9686e-05
-2.28876e-05
2.47415e-05
1.86871e-05
-2.05411e-05
-2.66404e-05
2.85869e-05
1.95424e-05
-2.14889e-05
-3.05833e-05
3.26316e-05
2.04506e-05
-2.24989e-05
-3.47337e-05
3.68905e-05
2.13654e-05
-2.35222e-05
-3.91037e-05
4.13736e-05
2.22282e-05
-2.44981e-05
-4.36996e-05
4.60798e-05
2.29236e-05
-2.53038e-05
-4.8511e-05
5.09924e-05
2.32742e-05
-2.57556e-05
-5.35223e-05
5.60945e-05
2.30411e-05
-2.56132e-05
-5.86926e-05
6.12921e-05
2.17837e-05
-2.43832e-05
-6.3871e-05
6.64213e-05
1.86466e-05
-2.11969e-05
-6.89424e-05
7.14324e-05
1.25159e-05
-1.50059e-05
-7.38839e-05
7.62523e-05
1.92942e-06
-4.29785e-06
-7.83618e-05
7.98815e-05
-1.70886e-05
1.55689e-05
-8.00047e-05
7.76527e-05
-5.08713e-05
5.32233e-05
-7.12769e-05
5.98586e-05
-9.87331e-05
0.000110151
-4.28817e-05
2.24006e-05
-0.00013536
0.000155841
1.46273e-05
-1.58022e-05
1.1749e-06
-2.87904e-06
4.55068e-06
2.10606e-05
-2.27322e-05
-6.12878e-06
7.67723e-06
1.9134e-05
-2.06825e-05
-9.2368e-06
1.08192e-05
1.9313e-05
-2.08954e-05
-1.24257e-05
1.40573e-05
1.99393e-05
-2.15709e-05
-1.57162e-05
1.74056e-05
2.06375e-05
-2.23269e-05
-1.91288e-05
2.08891e-05
2.14528e-05
-2.32131e-05
-2.26895e-05
2.45332e-05
2.23905e-05
-2.42342e-05
-2.64231e-05
2.83623e-05
2.34323e-05
-2.53714e-05
-3.03534e-05
3.23993e-05
2.45465e-05
-2.65924e-05
-3.45024e-05
3.66647e-05
2.5682e-05
-2.78443e-05
-3.88893e-05
4.11777e-05
2.67773e-05
-2.90657e-05
-4.3531e-05
4.59494e-05
2.77028e-05
-3.01212e-05
-4.8434e-05
5.09894e-05
2.82733e-05
-3.08286e-05
-5.36177e-05
5.63133e-05
2.82473e-05
-3.09429e-05
-5.9061e-05
6.18476e-05
2.70755e-05
-2.98622e-05
-6.46814e-05
6.75972e-05
2.39229e-05
-2.68387e-05
-7.06259e-05
7.37743e-05
1.78222e-05
-2.09706e-05
-7.70701e-05
8.05886e-05
7.23034e-06
-1.07488e-05
-8.43128e-05
8.81245e-05
-1.29763e-05
9.16466e-06
-9.09039e-05
9.14697e-05
-5.43094e-05
5.37437e-05
-8.64373e-05
7.42232e-05
-0.000121699
0.000133913
-5.42752e-05
2.87324e-05
-0.000178997
0.00020454
1.69876e-05
-1.81841e-05
1.19652e-06
-2.87178e-06
4.50182e-06
2.43838e-05
-2.60138e-05
-6.04732e-06
7.57419e-06
2.22204e-05
-2.37473e-05
-9.11751e-06
1.06843e-05
2.24704e-05
-2.40372e-05
-1.22744e-05
1.38887e-05
2.31943e-05
-2.48086e-05
-1.55303e-05
1.72024e-05
2.40081e-05
-2.56802e-05
-1.89089e-05
2.0653e-05
2.49656e-05
-2.67098e-05
-2.24382e-05
2.42677e-05
2.60711e-05
-2.79007e-05
-2.6145e-05
2.80734e-05
2.73055e-05
-2.9234e-05
-3.00563e-05
3.2097e-05
2.86359e-05
-3.06767e-05
-3.41989e-05
3.6365e-05
3.00087e-05
-3.21747e-05
-3.85995e-05
4.09054e-05
3.13631e-05
-3.3669e-05
-4.32853e-05
4.57423e-05
3.2559e-05
-3.5016e-05
-4.82824e-05
5.09144e-05
3.34224e-05
-3.60544e-05
-5.36395e-05
5.64496e-05
3.36976e-05
-3.65077e-05
-5.93391e-05
6.23254e-05
3.27461e-05
-3.57323e-05
-6.5453e-05
6.878e-05
2.99559e-05
-3.32828e-05
-7.2353e-05
7.61888e-05
2.44534e-05
-2.82892e-05
-8.03392e-05
8.50153e-05
1.48752e-05
-1.95513e-05
-9.03171e-05
9.55806e-05
-4.20245e-06
-1.06109e-06
-9.90299e-05
9.97714e-05
-5.22719e-05
5.15303e-05
-9.34766e-05
7.60765e-05
-0.000148108
0.000165509
-5.38506e-05
3.00247e-05
-0.000230684
0.00025451
-2.07921e-06
4.26796e-06
-2.18876e-06
3.76754e-06
-5.05072e-06
1.28317e-06
5.91886e-06
-6.42654e-06
5.07676e-07
6.6394e-06
-6.62165e-06
-1.77478e-08
6.43545e-06
-6.12816e-06
-3.07285e-07
5.73899e-06
-5.30374e-06
-4.35248e-07
4.8501e-06
-4.39261e-06
-4.57486e-07
3.94583e-06
-3.51872e-06
-4.27104e-07
3.11656e-06
-2.74308e-06
-3.73481e-07
2.4031e-06
-2.09264e-06
-3.10462e-07
1.81557e-06
-1.56596e-06
-2.49607e-07
1.34717e-06
-1.15274e-06
-1.94428e-07
9.83798e-07
-8.35312e-07
-1.48485e-07
7.06091e-07
-5.93372e-07
-1.12719e-07
4.96128e-07
-4.12655e-07
-8.3473e-08
3.41277e-07
-2.7829e-07
-6.29871e-08
2.2447e-07
-1.78074e-07
-4.63963e-08
1.37614e-07
-1.01568e-07
-3.60465e-08
6.97724e-08
-3.80881e-08
-3.16843e-08
-6.50498e-06
8.90633e-06
-2.40135e-06
3.93029e-06
-5.08185e-06
-2.4297e-06
3.58126e-06
5.76589e-06
-6.07827e-06
-8.42774e-07
1.15516e-06
6.10907e-06
-5.92716e-06
1.66626e-07
-3.48538e-07
5.59373e-06
-5.15904e-06
7.13292e-07
-1.14797e-06
4.67173e-06
-4.1545e-06
9.34868e-07
-1.4521e-06
3.63571e-06
-3.1335e-06
9.57083e-07
-1.45929e-06
2.65973e-06
-2.22372e-06
8.63915e-07
-1.29993e-06
1.82876e-06
-1.47885e-06
7.30055e-07
-1.07996e-06
1.16504e-06
-8.94536e-07
5.83925e-07
-8.54427e-07
6.62045e-07
-4.6483e-07
4.48138e-07
-6.45353e-07
3.00891e-07
-1.64727e-07
3.31654e-07
-4.67818e-07
5.6435e-08
2.93746e-08
2.39658e-07
-3.25467e-07
-9.44956e-08
1.41339e-07
1.64591e-07
-2.11434e-07
-1.72222e-07
1.89407e-07
1.05955e-07
-1.2314e-07
-1.94814e-07
1.89456e-07
6.30977e-08
-5.77396e-08
-1.75816e-07
1.54861e-07
3.11424e-08
-1.01876e-08
-1.28215e-07
9.69459e-08
1.03512e-08
2.09179e-08
-6.25477e-08
2.5502e-08
2.10911e-11
3.70246e-08
-1.15518e-05
1.45329e-05
-2.9811e-06
4.55163e-06
-5.69629e-06
-4.73713e-06
5.88178e-06
6.26831e-06
-6.4703e-06
-1.42083e-06
1.62281e-06
6.39949e-06
-6.1372e-06
5.65185e-07
-8.27472e-07
5.73492e-06
-5.24607e-06
1.60534e-06
-2.09419e-06
4.71108e-06
-4.1614e-06
1.98334e-06
-2.53301e-06
3.62077e-06
-3.10515e-06
1.96594e-06
-2.48156e-06
2.62441e-06
-2.18505e-06
1.7387e-06
-2.17805e-06
1.78986e-06
-1.43831e-06
1.43129e-06
-1.78284e-06
1.13041e-06
-8.63441e-07
1.1231e-06
-1.39007e-06
6.34111e-07
-4.4097e-07
8.40701e-07
-1.03384e-06
2.80415e-07
-1.46558e-07
6.02437e-07
-7.36295e-07
3.98111e-08
4.38241e-08
4.10517e-07
-4.94152e-07
-1.0704e-07
1.5222e-07
2.57844e-07
-3.03025e-07
-1.8169e-07
1.97516e-07
1.39945e-07
-1.55771e-07
-2.01534e-07
1.95327e-07
5.22266e-08
-4.60198e-08
-1.80641e-07
1.58832e-07
-1.08688e-08
3.26773e-08
-1.31309e-07
9.91175e-08
-5.24341e-08
8.46259e-08
-6.38308e-08
2.6313e-08
-7.42497e-08
1.11768e-07
-1.79705e-05
2.20425e-05
-4.072e-06
5.71367e-06
-6.76908e-06
-6.9958e-06
8.05121e-06
7.09018e-06
-7.07315e-06
-1.72759e-06
1.71056e-06
6.84532e-06
-6.45284e-06
1.15048e-06
-1.54297e-06
5.94494e-06
-5.36985e-06
2.62245e-06
-3.19754e-06
4.76771e-06
-4.16826e-06
3.10553e-06
-3.70498e-06
3.59245e-06
-3.05328e-06
3.00815e-06
-3.54733e-06
2.5588e-06
-2.11548e-06
2.62134e-06
-3.06466e-06
1.71379e-06
-1.36299e-06
2.13413e-06
-2.48493e-06
1.05865e-06
-7.9517e-07
1.65507e-06
-1.91855e-06
5.71231e-07
-3.83019e-07
1.22811e-06
-1.41632e-06
2.26508e-07
-9.90847e-08
8.6756e-07
-9.94983e-07
-2.79977e-09
8.19503e-08
5.75831e-07
-6.54981e-07
-1.40784e-07
1.82022e-07
3.46358e-07
-3.87597e-07
-2.07802e-07
2.20179e-07
1.70069e-07
-1.82445e-07
-2.21071e-07
2.1198e-07
3.85627e-08
-2.94722e-08
-1.94569e-07
1.70223e-07
-5.57385e-08
8.00844e-08
-1.40297e-07
1.0615e-07
-1.17709e-07
1.51857e-07
-6.88259e-08
2.94699e-08
-1.49846e-07
1.89202e-07
-2.70136e-05
3.31836e-05
-6.17007e-06
7.86216e-06
-8.56958e-06
-8.98936e-06
9.69677e-06
8.2797e-06
-7.87028e-06
-1.52782e-06
1.1184e-06
7.41084e-06
-6.85436e-06
2.01397e-06
-2.57044e-06
6.20677e-06
-5.51546e-06
3.82611e-06
-4.51741e-06
4.82361e-06
-4.15943e-06
4.33517e-06
-4.99935e-06
3.53859e-06
-2.96988e-06
4.10057e-06
-4.66928e-06
2.45828e-06
-2.00338e-06
3.51586e-06
-3.97077e-06
1.60519e-06
-1.25484e-06
2.83473e-06
-3.18508e-06
9.55024e-07
-6.98157e-07
2.17951e-06
-2.43637e-06
4.82211e-07
-3.03069e-07
1.60104e-06
-1.78018e-06
1.52912e-07
-3.26489e-08
1.11906e-06
-1.23933e-06
-6.22561e-08
1.34779e-07
7.30918e-07
-8.03441e-07
-1.87626e-07
2.23223e-07
4.26259e-07
-4.61856e-07
-2.43812e-07
2.51434e-07
1.92569e-07
-2.00191e-07
-2.47903e-07
2.34787e-07
1.83771e-08
-5.26201e-09
-2.13601e-07
1.85687e-07
-1.06095e-07
1.34008e-07
-1.52314e-07
1.14436e-07
-1.87793e-07
2.25671e-07
-7.35152e-08
3.07711e-08
-2.30551e-07
2.73295e-07
-4.06914e-05
4.94011e-05
-8.70961e-06
1.04845e-05
-1.04913e-05
-1.00581e-05
1.00649e-05
9.69895e-06
-8.86058e-06
-4.51836e-07
-3.8653e-07
8.09054e-06
-7.31754e-06
3.22377e-06
-3.99678e-06
6.49791e-06
-5.66511e-06
5.27651e-06
-6.1093e-06
4.86194e-06
-4.11943e-06
5.70174e-06
-6.44426e-06
3.44712e-06
-2.84686e-06
5.25152e-06
-5.85179e-06
2.31947e-06
-1.85606e-06
4.42953e-06
-4.89295e-06
1.45641e-06
-1.1178e-06
3.53215e-06
-3.87076e-06
8.20578e-07
-5.72603e-07
2.6845e-06
-2.93248e-06
3.66886e-07
-1.96743e-07
1.95583e-06
-2.12597e-06
5.81819e-08
5.23267e-08
1.35502e-06
-1.46552e-06
-1.38089e-07
2.02076e-07
8.72046e-07
-9.36033e-07
-2.47004e-07
2.75347e-07
4.9397e-07
-5.22313e-07
-2.89334e-07
2.90837e-07
2.04933e-07
-2.06436e-07
-2.81717e-07
2.63472e-07
-1.02712e-08
2.85159e-08
-2.37532e-07
2.05215e-07
-1.64128e-07
1.96445e-07
-1.67758e-07
1.265e-07
-2.65223e-07
3.06481e-07
-8.2245e-08
3.62472e-08
-3.17323e-07
3.63321e-07
-5.92215e-05
7.03897e-05
-1.11682e-05
1.12851e-05
-1.15019e-05
-9.9841e-06
1.02009e-05
1.1024e-05
-1.01075e-05
1.23901e-06
-2.1555e-06
9.00046e-06
-7.87971e-06
4.9228e-06
-6.04355e-06
6.802e-06
-5.78668e-06
7.0277e-06
-8.04302e-06
4.85818e-06
-4.03097e-06
7.22886e-06
-8.05607e-06
3.30433e-06
-2.67248e-06
6.46803e-06
-7.09988e-06
2.12828e-06
-1.66482e-06
5.35604e-06
-5.8195e-06
1.26871e-06
-9.32846e-07
4.21118e-06
-4.54705e-06
6.5323e-07
-4.17557e-07
3.17432e-06
-3.41e-06
2.25232e-07
-6.85401e-08
2.29296e-06
-2.44965e-06
-5.71999e-08
1.55473e-07
1.57027e-06
-1.66854e-06
-2.29847e-07
2.83257e-07
9.9491e-07
-1.04832e-06
-3.18459e-07
3.37962e-07
5.46505e-07
-5.66007e-07
-3.43831e-07
3.38051e-07
2.04374e-07
-1.98594e-07
-3.22176e-07
2.97752e-07
-4.98001e-08
7.42243e-08
-2.66084e-07
2.28386e-07
-2.3128e-07
2.68978e-07
-1.85737e-07
1.38989e-07
-3.50255e-07
3.97003e-07
-8.93967e-08
3.84445e-08
-4.11953e-07
4.62905e-07
0.000104559
-8.53603e-05
-1.91984e-05
1.51761e-05
-1.50409e-05
-1.07956e-05
1.06605e-05
1.35726e-05
-1.18158e-05
3.38288e-06
-5.13969e-06
1.00997e-05
-8.50663e-06
7.39341e-06
-8.98647e-06
7.08213e-06
-5.84886e-06
9.16086e-06
-1.03941e-05
4.78125e-06
-3.86882e-06
8.92889e-06
-9.84131e-06
3.09279e-06
-2.43711e-06
7.74422e-06
-8.3999e-06
1.8923e-06
-1.423e-06
6.28251e-06
-6.75181e-06
1.03663e-06
-7.16864e-07
4.87719e-06
-5.19696e-06
4.50389e-07
-2.32741e-07
3.63084e-06
-3.84849e-06
5.76648e-08
8.26984e-08
2.5989e-06
-2.73926e-06
-1.92539e-07
2.7609e-07
1.75972e-06
-1.84327e-06
-3.36898e-07
3.77661e-07
1.09574e-06
-1.1365e-06
-4.01287e-07
4.10413e-07
5.80456e-07
-5.89582e-07
-4.06791e-07
3.92424e-07
1.88695e-07
-1.74328e-07
-3.68764e-07
3.37209e-07
-1.02029e-07
1.33584e-07
-2.98974e-07
2.55191e-07
-3.09675e-07
3.53458e-07
-2.06912e-07
1.55185e-07
-4.46285e-07
4.98012e-07
-1.0062e-07
4.48406e-08
-5.16083e-07
5.71862e-07
2.07354e-05
-2.33189e-05
2.58352e-06
-6.08101e-06
9.41332e-06
2.76226e-05
-3.09549e-05
-1.25978e-05
1.57796e-05
2.52623e-05
-2.84441e-05
-1.9008e-05
2.22861e-05
2.55949e-05
-2.8873e-05
-2.56114e-05
2.8987e-05
2.64131e-05
-2.97887e-05
-3.24202e-05
3.59194e-05
2.73426e-05
-3.08418e-05
-3.94927e-05
4.3148e-05
2.84447e-05
-3.21e-05
-4.68931e-05
5.07356e-05
2.97221e-05
-3.35646e-05
-5.46836e-05
5.87459e-05
3.1156e-05
-3.52183e-05
-6.29307e-05
6.7247e-05
3.27139e-05
-3.70301e-05
-7.17038e-05
7.63105e-05
3.43417e-05
-3.89484e-05
-8.10793e-05
8.60193e-05
3.59826e-05
-4.09226e-05
-9.11409e-05
9.64614e-05
3.74915e-05
-4.2812e-05
-0.000102004
0.000107786
3.8723e-05
-4.45048e-05
-0.000113801
0.00012005
3.93697e-05
-4.56193e-05
-0.000126591
0.00013354
3.88267e-05
-4.57758e-05
-0.000141019
0.000149133
3.68167e-05
-4.49309e-05
-0.000158026
0.000167852
3.25151e-05
-4.23412e-05
-0.000178047
0.000186049
2.44248e-05
-3.24265e-05
-0.000189632
0.000191248
5.54562e-06
-7.16169e-06
-0.000188378
0.00017833
-5.26368e-05
6.26843e-05
-0.000153073
0.000112647
-0.000185015
0.000225441
-7.09579e-05
5.37274e-05
-0.000272562
0.000289792
2.59294e-05
-2.85587e-05
2.62925e-06
-5.95529e-06
9.07272e-06
3.41865e-05
-3.73039e-05
-1.20889e-05
1.51436e-05
3.15644e-05
-3.4619e-05
-1.82596e-05
2.14239e-05
3.20985e-05
-3.52628e-05
-2.46314e-05
2.78874e-05
3.31087e-05
-3.63648e-05
-3.12015e-05
3.45827e-05
3.42863e-05
-3.76675e-05
-3.80398e-05
4.15814e-05
3.57029e-05
-3.92444e-05
-4.5216e-05
4.89528e-05
3.73591e-05
-4.10959e-05
-5.28013e-05
5.6772e-05
3.924e-05
-4.32107e-05
-6.08755e-05
6.51232e-05
4.13181e-05
-4.55659e-05
-6.95277e-05
7.41025e-05
4.35461e-05
-4.81209e-05
-7.88634e-05
8.3824e-05
4.58818e-05
-5.08424e-05
-8.90068e-05
9.44431e-05
4.82013e-05
-5.36376e-05
-0.000100152
0.000106134
5.04092e-05
-5.63918e-05
-0.000112415
0.000119089
5.20882e-05
-5.87623e-05
-0.000126289
0.000134114
5.32047e-05
-6.10303e-05
-0.000142654
0.000151913
5.37796e-05
-6.30382e-05
-0.000161086
0.000168092
5.18521e-05
-5.88586e-05
-0.000167447
0.000152007
3.53652e-05
-1.99258e-05
-0.000129913
9.84134e-05
-1.35252e-05
4.50249e-05
-6.77114e-05
4.41231e-05
-8.46648e-05
0.000108253
-3.96442e-05
4.84469e-05
-0.000236629
0.000227827
-4.45808e-05
4.18285e-05
-0.000299
0.000301753
3.11987e-05
-3.384e-05
2.6413e-06
-5.76866e-06
8.64223e-06
4.03013e-05
-4.31749e-05
-1.14768e-05
1.43858e-05
3.76035e-05
-4.05125e-05
-1.73603e-05
2.03776e-05
3.83577e-05
-4.13749e-05
-2.34342e-05
2.65385e-05
3.95489e-05
-4.26532e-05
-2.97009e-05
3.29309e-05
4.09773e-05
-4.42073e-05
-3.62373e-05
3.96291e-05
4.27157e-05
-4.61075e-05
-4.31159e-05
4.67076e-05
4.47653e-05
-4.8357e-05
-5.04151e-05
5.42503e-05
4.71195e-05
-5.09547e-05
-5.82254e-05
6.23539e-05
4.97609e-05
-5.38893e-05
-6.66509e-05
7.11322e-05
5.26576e-05
-5.7139e-05
-7.58147e-05
8.07197e-05
5.57856e-05
-6.06906e-05
-8.58807e-05
9.13189e-05
5.90929e-05
-6.45311e-05
-9.70319e-05
0.000103059
6.24111e-05
-6.84381e-05
-0.000109515
0.000116501
6.56234e-05
-7.26102e-05
-0.000124071
0.00013236
6.91218e-05
-7.7411e-05
-0.000141072
0.000148569
7.19744e-05
-7.94709e-05
-0.00014688
0.000130274
5.67674e-05
-4.01609e-05
-0.000100006
6.45781e-05
-6.71518e-06
4.21436e-05
-3.41597e-05
1.23992e-05
-7.53676e-05
9.71281e-05
3.39928e-06
-1.34627e-05
-0.000125764
0.000135828
1.70797e-05
-4.14857e-07
-0.000214461
0.000197796
-2.25159e-05
3.95342e-05
-0.000293572
0.000276554
3.64727e-05
-3.90862e-05
2.61355e-06
-5.5085e-06
8.12754e-06
4.5922e-05
-4.85411e-05
-1.07708e-05
1.35121e-05
4.33406e-05
-4.60818e-05
-1.63143e-05
1.9152e-05
4.43063e-05
-4.7144e-05
-2.2026e-05
2.49466e-05
4.56695e-05
-4.85901e-05
-2.79243e-05
3.09683e-05
4.73486e-05
-5.03926e-05
-3.40874e-05
3.72909e-05
4.94101e-05
-5.26135e-05
-4.05888e-05
4.39917e-05
5.18601e-05
-5.5263e-05
-4.75114e-05
5.11607e-05
5.47034e-05
-5.83527e-05
-5.49528e-05
5.89023e-05
5.79361e-05
-6.18856e-05
-6.3026e-05
6.7339e-05
6.1546e-05
-6.58589e-05
-7.18603e-05
7.66211e-05
6.5535e-05
-7.02958e-05
-8.16441e-05
8.69231e-05
6.991e-05
-7.51891e-05
-9.2497e-05
9.84769e-05
7.44547e-05
-8.04347e-05
-0.000104894
0.000111795
7.96046e-05
-8.65055e-05
-0.00011947
0.000127084
8.57809e-05
-9.33949e-05
-0.000129504
0.000115472
7.95631e-05
-6.55315e-05
-8.27497e-05
4.11646e-05
7.33713e-06
3.42479e-05
-7.91266e-06
-1.22629e-05
-7.37181e-05
9.38936e-05
2.37198e-05
-3.01096e-05
-0.000110044
0.000116434
3.26716e-05
-3.09866e-05
-0.000138748
0.000137063
2.30646e-05
-5.74882e-06
-0.000180154
0.000162838
-2.11848e-05
3.40613e-05
-0.000259134
0.000246257
4.167e-05
-4.42128e-05
2.54284e-06
-5.17526e-06
7.53554e-06
5.1031e-05
-5.33912e-05
-9.97803e-06
1.25273e-05
4.87301e-05
-5.12793e-05
-1.51269e-05
1.77546e-05
4.98804e-05
-5.25081e-05
-2.04158e-05
2.31215e-05
5.14071e-05
-5.41128e-05
-2.58815e-05
2.87041e-05
5.33303e-05
-5.61529e-05
-3.15979e-05
3.45724e-05
5.57076e-05
-5.86821e-05
-3.76378e-05
4.08052e-05
5.85542e-05
-6.17216e-05
-4.40867e-05
4.74955e-05
6.18887e-05
-6.52975e-05
-5.10455e-05
5.47519e-05
6.57216e-05
-6.9428e-05
-5.86312e-05
6.26964e-05
7.00577e-05
-7.41229e-05
-6.6974e-05
7.14893e-05
7.49478e-05
-7.94631e-05
-7.62322e-05
8.12368e-05
8.03386e-05
-8.53432e-05
-8.65996e-05
9.22924e-05
8.63232e-05
-9.2016e-05
-9.84502e-05
0.000105499
9.34146e-05
-0.000100463
-0.00011247
0.000107564
9.87793e-05
-9.38732e-05
-8.31674e-05
3.74619e-05
3.54159e-05
1.02897e-05
2.43068e-06
-2.38875e-05
-6.99859e-05
9.14427e-05
3.32998e-05
-3.73518e-05
-0.000104137
0.000108189
3.88903e-05
-3.87396e-05
-0.000118733
0.000118583
3.70144e-05
-3.35666e-05
-0.00013367
0.000130222
2.75409e-05
-2.0042e-05
-0.000149833
0.000142334
-4.28082e-06
2.68635e-05
-0.000232634
0.000210052
4.67042e-05
-4.91338e-05
2.42956e-06
-4.77387e-06
6.87449e-06
5.56215e-05
-5.77222e-05
-9.10438e-06
1.14365e-05
5.3723e-05
-5.60551e-05
-1.38052e-05
1.61953e-05
5.50202e-05
-5.74103e-05
-1.86154e-05
2.10759e-05
5.66995e-05
-5.91601e-05
-2.35852e-05
2.61507e-05
5.88513e-05
-6.14168e-05
-2.87807e-05
3.14843e-05
6.15263e-05
-6.42299e-05
-3.42719e-05
3.71547e-05
6.47527e-05
-6.76355e-05
-4.01449e-05
4.32562e-05
6.85647e-05
-7.16759e-05
-4.65028e-05
4.99007e-05
7.29881e-05
-7.6386e-05
-5.34638e-05
5.7208e-05
7.80357e-05
-8.178e-05
-6.1162e-05
6.53151e-05
8.38113e-05
-8.79644e-05
-6.96904e-05
7.43714e-05
9.01973e-05
-9.48783e-05
-7.92486e-05
8.44856e-05
9.74187e-05
-0.000102656
-9.04627e-05
9.57689e-05
0.000106718
-0.000112024
-8.48889e-05
5.00619e-05
7.63711e-05
-4.15441e-05
-2.75798e-06
-2.59992e-05
-5.42006e-05
8.29578e-05
3.60121e-05
-3.82025e-05
-0.000100674
0.000102865
3.791e-05
-3.66815e-05
-0.000108805
0.000107577
3.48302e-05
-3.23777e-05
-0.000116981
0.000114528
2.93542e-05
-2.58768e-05
-0.000126957
0.000123479
2.17861e-05
-1.7885e-05
-0.000138121
0.00013422
7.60835e-06
1.70805e-05
-0.000182136
0.000157447
5.14909e-05
-5.37654e-05
2.27442e-06
-4.31432e-06
6.15718e-06
5.96935e-05
-6.15364e-05
-8.16154e-06
1.02531e-05
5.82697e-05
-6.03613e-05
-1.2367e-05
1.44961e-05
5.96725e-05
-6.18016e-05
-1.66503e-05
1.8838e-05
6.14875e-05
-6.36753e-05
-2.1066e-05
2.33405e-05
6.38409e-05
-6.61155e-05
-2.56693e-05
2.80609e-05
6.67827e-05
-6.91743e-05
-3.05253e-05
3.30736e-05
7.03573e-05
-7.29056e-05
-3.57185e-05
3.84738e-05
7.46167e-05
-7.7372e-05
-4.13561e-05
4.43799e-05
7.96053e-05
-8.26291e-05
-4.75613e-05
5.09242e-05
8.53409e-05
-8.87038e-05
-5.44668e-05
5.82033e-05
9.19063e-05
-9.56428e-05
-6.2205e-05
6.62819e-05
9.93095e-05
-0.000103386
-7.05468e-05
7.54853e-05
0.000107846
-0.000112784
-7.92738e-05
6.59497e-05
0.000110595
-9.72712e-05
-2.50657e-05
-1.95564e-05
-6.52021e-06
5.11423e-05
3.73296e-05
-3.96581e-05
-9.56383e-05
9.79669e-05
3.78955e-05
-3.54972e-05
-0.000101773
9.93743e-05
3.29842e-05
-3.03338e-05
-0.000105401
0.00010275
2.73962e-05
-2.40482e-05
-0.000111551
0.000108203
2.01894e-05
-1.57222e-05
-0.000119509
0.000115042
1.05419e-05
-4.4024e-06
-0.000129124
0.000122984
-2.42958e-06
1.27953e-05
-0.000141284
0.000130918
5.59486e-05
-5.8032e-05
2.08345e-06
-3.80796e-06
5.39728e-06
6.32516e-05
-6.48409e-05
-7.16317e-06
8.99455e-06
6.23246e-05
-6.4156e-05
-1.08351e-05
1.26845e-05
6.37925e-05
-6.56419e-05
-1.45518e-05
1.64428e-05
6.57171e-05
-6.76081e-05
-1.83621e-05
2.03147e-05
6.82324e-05
-7.0185e-05
-2.2307e-05
2.43463e-05
7.13944e-05
-7.34338e-05
-2.64418e-05
2.8604e-05
7.52671e-05
-7.74293e-05
-3.08458e-05
3.3182e-05
7.99257e-05
-8.22619e-05
-3.56333e-05
3.82126e-05
8.5439e-05
-8.80183e-05
-4.09596e-05
4.38741e-05
9.18515e-05
-9.4766e-05
-4.69798e-05
5.03863e-05
9.92016e-05
-0.000102608
-5.37461e-05
5.6998e-05
0.000107
-0.000110252
-6.10184e-05
6.41246e-05
0.000117209
-0.000120315
-5.0359e-05
7.93674e-06
7.01424e-05
-2.77201e-05
3.19855e-05
-4.29381e-05
-7.89702e-05
8.99228e-05
4.09317e-05
-3.74097e-05
-9.57316e-05
9.22095e-05
3.42116e-05
-3.123e-05
-9.65229e-05
9.35413e-05
2.82717e-05
-2.51434e-05
-9.98248e-05
9.66965e-05
2.17145e-05
-1.78759e-05
-0.000104569
0.00010073
1.35241e-05
-8.53602e-06
-0.000110226
0.000105238
2.77728e-06
3.8902e-06
-0.000116387
0.000109719
-1.17636e-05
2.05916e-05
-0.000122118
0.00011329
6.00085e-05
-6.18719e-05
1.86343e-06
-3.26965e-06
4.61097e-06
6.63054e-05
-6.76467e-05
-6.12726e-06
7.68421e-06
6.58515e-05
-6.74085e-05
-9.23945e-06
1.07962e-05
6.73463e-05
-6.8903e-05
-1.23613e-05
1.39368e-05
6.93432e-05
-7.09187e-05
-1.55256e-05
1.71303e-05
7.19663e-05
-7.3571e-05
-1.87555e-05
2.04062e-05
7.52826e-05
-7.69333e-05
-2.209e-05
2.3816e-05
7.93788e-05
-8.11048e-05
-2.55969e-05
2.74512e-05
8.43643e-05
-8.62186e-05
-2.9399e-05
3.14681e-05
9.03511e-05
-9.24201e-05
-3.37107e-05
3.60997e-05
9.74302e-05
-9.98192e-05
-3.884e-05
4.17355e-05
0.000105816
-0.000108712
-4.43973e-05
4.80648e-05
0.000113482
-0.00011715
-5.15858e-05
3.7826e-05
0.000118705
-0.000104946
3.38014e-06
-3.96305e-05
-2.07167e-05
5.69671e-05
4.63741e-05
-4.18711e-05
-9.00638e-05
8.55607e-05
3.77354e-05
-3.43069e-05
-8.86368e-05
8.52083e-05
3.11656e-05
-2.80867e-05
-9.05096e-05
8.74306e-05
2.49114e-05
-2.15462e-05
-9.34179e-05
9.00528e-05
1.79132e-05
-1.39338e-05
-9.6776e-05
9.27966e-05
9.53023e-06
-4.62435e-06
-0.000100234
9.53281e-05
-8.72519e-07
7.0237e-06
-0.000103226
9.70748e-05
-1.39636e-05
2.16871e-05
-0.000104784
9.70607e-05
6.36177e-05
-6.52422e-05
1.62453e-06
-2.7154e-06
3.81739e-06
6.88669e-05
-6.99689e-05
-5.07727e-06
6.35453e-06
6.88253e-05
-7.01026e-05
-7.62166e-06
8.88207e-06
7.03112e-05
-7.15716e-05
-1.0139e-05
1.13919e-05
7.23325e-05
-7.35854e-05
-1.26417e-05
1.38885e-05
7.49963e-05
-7.62431e-05
-1.51339e-05
1.63795e-05
7.83819e-05
-7.96276e-05
-1.76287e-05
1.88849e-05
8.26007e-05
-8.38569e-05
-2.01516e-05
2.14355e-05
8.78083e-05
-8.90921e-05
-2.27324e-05
2.4077e-05
9.41828e-05
-9.55274e-05
-2.54204e-05
2.69098e-05
0.000101851
-0.00010334
-2.85384e-05
3.07047e-05
0.000111182
-0.000113348
-3.44411e-05
3.85202e-05
0.000121056
-0.000125135
-2.63191e-05
-1.22078e-05
7.67552e-05
-3.82283e-05
4.46e-05
-4.85435e-05
-7.4107e-05
7.80505e-05
4.25423e-05
-3.81807e-05
-8.03559e-05
7.59943e-05
3.48076e-05
-3.16723e-05
-8.19203e-05
7.8785e-05
2.86411e-05
-2.55676e-05
-8.43239e-05
8.12503e-05
2.23998e-05
-1.90742e-05
-8.66728e-05
8.33471e-05
1.55346e-05
-1.17271e-05
-8.8871e-05
8.50635e-05
7.60519e-06
-3.12952e-06
-9.06087e-05
8.6133e-05
-1.73058e-06
6.99072e-06
-9.13525e-05
8.60923e-05
-1.26531e-05
1.86769e-05
-9.02205e-05
8.41968e-05
6.67418e-05
-6.81128e-05
1.37094e-06
-2.1628e-06
3.04259e-06
7.09574e-05
-7.18372e-05
-4.05251e-06
5.06011e-06
7.12432e-05
-7.22508e-05
-6.04845e-06
7.02062e-06
7.26871e-05
-7.36593e-05
-7.97616e-06
8.91154e-06
7.46803e-05
-7.56157e-05
-9.82237e-06
1.0699e-05
7.73121e-05
-7.81887e-05
-1.15334e-05
1.23133e-05
8.06615e-05
-8.14415e-05
-1.30217e-05
1.36309e-05
8.4837e-05
-8.54463e-05
-1.41061e-05
1.44107e-05
8.99661e-05
-9.02707e-05
-1.45353e-05
1.45257e-05
9.6259e-05
-9.62493e-05
-1.43972e-05
1.44616e-05
0.000104073
-0.000104137
-1.47489e-05
1.72685e-05
0.000115563
-0.000118083
-1.91403e-05
9.37162e-06
0.000125861
-0.000116092
1.92907e-05
-4.49586e-05
-1.44596e-06
2.71138e-05
4.85679e-05
-4.19243e-05
-7.42419e-05
6.75983e-05
3.73646e-05
-3.45534e-05
-7.25976e-05
6.97863e-05
3.16485e-05
-2.89682e-05
-7.58494e-05
7.31692e-05
2.62276e-05
-2.3437e-05
-7.82842e-05
7.54936e-05
2.05333e-05
-1.74804e-05
-8.01352e-05
7.70822e-05
1.42436e-05
-1.07966e-05
-8.14209e-05
7.79739e-05
7.12152e-06
-3.20974e-06
-8.1933e-05
7.80212e-05
-9.3634e-07
5.30164e-06
-8.12917e-05
7.69264e-05
-9.85088e-06
1.45273e-05
-7.88942e-05
7.42178e-05
6.93503e-05
-7.04568e-05
1.10658e-06
-1.6027e-06
2.23934e-06
7.26059e-05
-7.32425e-05
-2.99489e-06
3.70672e-06
7.31219e-05
-7.38337e-05
-4.38538e-06
5.02158e-06
7.44785e-05
-7.51147e-05
-5.61279e-06
6.13839e-06
7.63697e-05
-7.68953e-05
-6.58228e-06
6.91105e-06
7.88221e-05
-7.91509e-05
-7.11431e-06
7.16995e-06
8.18769e-05
-8.19325e-05
-7.08889e-06
6.88877e-06
8.55738e-05
-8.53737e-05
-6.62809e-06
6.44768e-06
8.99918e-05
-8.98114e-05
-6.60268e-06
7.40972e-06
9.58781e-05
-9.66852e-05
-9.41654e-06
1.25615e-05
0.000104567
-0.000107712
-1.77644e-05
1.61543e-05
0.000120066
-0.000118456
-5.49864e-06
-5.20741e-06
0.00010423
-9.35239e-05
3.11993e-05
-3.99486e-05
-4.04176e-05
4.9167e-05
3.65467e-05
-3.32754e-05
-6.18031e-05
5.85318e-05
3.19246e-05
-3.00871e-05