/*--------------------------------*- C++ -*----------------------------------*\
| =========                 |                                                 |
| \\      /  F ield         | OpenFOAM: The Open Source CFD Toolbox           |
|  \\    /   O peration     | Version:  v1912                                 |
|   \\  /    A nd           | Website:  www.openfoam.com                      |
|    \\/     M anipulation  |                                                 |
\*---------------------------------------------------------------------------*/
FoamFile
{
    version     2.0;
    format      ascii;
    class       volVectorField;
    location    "0.15";
    object      U;
}
// * * * * * * * * * * * * * * * * * * * * * * * * * * * * * * * * * * * * * //

dimensions      [0 1 -1 0 0 0 0];


internalField   nonuniform List<vector> 
9072
(
(0.0101283 -0.0176774 0)
(0.0853164 -0.00946906 0)
(0.162418 -0.00850762 0)
(0.234995 -0.00855349 0)
(0.309607 -0.00884424 0)
(0.386806 -0.00916305 0)
(0.466876 -0.00952473 0)
(0.550224 -0.00993588 0)
(0.637229 -0.0103852 0)
(0.728146 -0.0108536 0)
(0.823017 -0.011312 0)
(0.921578 -0.011713 0)
(1.02307 -0.0119832 0)
(1.12594 -0.0120036 0)
(1.22739 -0.0115884 0)
(1.32261 -0.0104464 0)
(1.40359 -0.00802864 0)
(1.45595 -0.00333832 0)
(1.4511 0.00766525 0)
(1.31744 0.0323751 0)
(0.944477 0.0803228 0)
(0.207201 0.10983 0)
(-0.744801 -0.0991617 0)
(0.0100894 -0.0415571 0)
(0.086307 -0.0482303 0)
(0.163906 -0.0434516 0)
(0.237185 -0.0436336 0)
(0.312459 -0.0450918 0)
(0.390296 -0.0466871 0)
(0.470989 -0.0484949 0)
(0.554947 -0.050547 0)
(0.642549 -0.0527906 0)
(0.734058 -0.0551324 0)
(0.829533 -0.0574261 0)
(0.928744 -0.0594412 0)
(1.03099 -0.0608236 0)
(1.13482 -0.0609948 0)
(1.23756 -0.0590129 0)
(1.33468 -0.0534816 0)
(1.41872 -0.0418506 0)
(1.47652 -0.019459 0)
(1.48649 0.0198412 0)
(1.42181 0.0865235 0)
(1.27892 0.208677 0)
(1.08548 0.406205 0)
(0.484593 0.317586 0)
(0.0101235 -0.0655774 0)
(0.0863287 -0.0867765 0)
(0.163254 -0.0782625 0)
(0.236336 -0.0786076 0)
(0.311405 -0.0812184 0)
(0.389003 -0.0840782 0)
(0.469447 -0.0873318 0)
(0.553173 -0.0910284 0)
(0.640572 -0.0950753 0)
(0.731931 -0.0993094 0)
(0.827349 -0.103477 0)
(0.926665 -0.107174 0)
(1.0293 -0.109791 0)
(1.13397 -0.110304 0)
(1.2383 -0.107084 0)
(1.33839 -0.0977896 0)
(1.42759 -0.077886 0)
(1.49347 -0.0393404 0)
(1.51664 0.0281152 0)
(1.47031 0.138467 0)
(1.31702 0.304725 0)
(1.05124 0.512621 0)
(0.747398 0.589761 0)
(0.0102211 -0.0898111 0)
(0.0862369 -0.124974 0)
(0.162242 -0.112879 0)
(0.235001 -0.113467 0)
(0.309757 -0.11721 0)
(0.386994 -0.12132 0)
(0.467071 -0.126023 0)
(0.550459 -0.131378 0)
(0.637577 -0.137252 0)
(0.728757 -0.143423 0)
(0.824174 -0.149541 0)
(0.923787 -0.155054 0)
(1.02721 -0.15913 0)
(1.13345 -0.160337 0)
(1.24063 -0.15652 0)
(1.34575 -0.144513 0)
(1.44294 -0.117758 0)
(1.5214 -0.0653981 0)
(1.56626 0.025738 0)
(1.55369 0.175934 0)
(1.43293 0.405634 0)
(1.1291 0.675145 0)
(0.633429 0.864739 0)
(0.0103549 -0.114277 0)
(0.0860199 -0.162693 0)
(0.160928 -0.147215 0)
(0.233249 -0.148162 0)
(0.307605 -0.153013 0)
(0.38441 -0.158363 0)
(0.46408 -0.16453 0)
(0.547132 -0.171573 0)
(0.634035 -0.179329 0)
(0.725194 -0.187527 0)
(0.82089 -0.195741 0)
(0.921229 -0.203303 0)
(1.02606 -0.209192 0)
(1.13467 -0.211636 0)
(1.24587 -0.208155 0)
(1.35756 -0.194746 0)
(1.46466 -0.163024 0)
(1.55972 -0.100703 0)
(1.63477 0.00712787 0)
(1.66966 0.192209 0)
(1.59643 0.496204 0)
(1.28895 0.889381 0)
(0.625508 1.17462 0)
(0.0106006 -0.139011 0)
(0.0857375 -0.199854 0)
(0.159412 -0.181223 0)
(0.231235 -0.182668 0)
(0.305157 -0.188615 0)
(0.381514 -0.195211 0)
(0.46078 -0.202871 0)
(0.543509 -0.211655 0)
(0.630218 -0.221372 0)
(0.721373 -0.231716 0)
(0.817347 -0.242201 0)
(0.918392 -0.252069 0)
(1.02458 -0.260146 0)
(1.13558 -0.264437 0)
(1.25106 -0.26235 0)
(1.36963 -0.248868 0)
(1.48735 -0.214586 0)
(1.6024 -0.147755 0)
(1.71427 -0.0324085 0)
(1.8097 0.178365 0)
(1.81341 0.563826 0)
(1.52974 1.12864 0)
(0.747947 1.56679 0)
(0.011021 -0.164153 0)
(0.0853347 -0.236317 0)
(0.157611 -0.214841 0)
(0.228838 -0.216947 0)
(0.302194 -0.223973 0)
(0.377948 -0.231819 0)
(0.456635 -0.240998 0)
(0.538847 -0.251564 0)
(0.625143 -0.263309 0)
(0.71606 -0.275901 0)
(0.812082 -0.288817 0)
(0.913644 -0.301254 0)
(1.02109 -0.311918 0)
(1.13453 -0.318766 0)
(1.25451 -0.319195 0)
(1.37996 -0.306965 0)
(1.5094 -0.273377 0)
(1.64775 -0.20856 0)
(1.79866 -0.0960197 0)
(1.96725 0.122289 0)
(2.09026 0.56399 0)
(1.87637 1.3331 0)
(0.974549 2.06044 0)
(0.0115838 -0.189732 0)
(0.0847045 -0.271969 0)
(0.155467 -0.248033 0)
(0.225946 -0.250938 0)
(0.298555 -0.259006 0)
(0.373516 -0.268099 0)
(0.451441 -0.278817 0)
(0.532959 -0.291204 0)
(0.618682 -0.305043 0)
(0.709227 -0.319998 0)
(0.805198 -0.335528 0)
(0.907224 -0.350829 0)
(1.01589 -0.364526 0)
(1.13189 -0.374745 0)
(1.25631 -0.378648 0)
(1.38829 -0.369224 0)
(1.53118 -0.340771 0)
(1.69453 -0.283713 0)
(1.88397 -0.183804 0)
(2.10623 0.00936774 0)
(2.27648 0.476495 0)
(1.96696 1.60101 0)
(1.00689 2.61481 0)
(-0.0282318 0.030867 0)
(-0.102172 0.00671507 0)
(-0.141481 0.00307657 0)
(-0.15133 0.000436099 0)
(-0.143188 -0.00113643 0)
(-0.125818 -0.00190014 0)
(-0.105315 -0.00210997 0)
(-0.0850885 -0.00208232 0)
(-0.0668007 -0.00190187 0)
(-0.0512395 -0.00164984 0)
(-0.0385377 -0.00138724 0)
(-0.0285029 -0.00114498 0)
(-0.0207448 -0.0009355 0)
(-0.0148147 -0.000763539 0)
(-0.0103646 -0.000630117 0)
(-0.00704358 -0.000531905 0)
(-0.00459172 -0.000451474 0)
(-0.00272949 -0.000395365 0)
(-0.00122935 -0.000372919 0)
(-0.0309528 0.0746532 0)
(-0.104966 0.0293397 0)
(-0.135852 0.00984086 0)
(-0.137301 -0.0024599 0)
(-0.122429 -0.00903151 0)
(-0.100411 -0.0115955 0)
(-0.0770017 -0.0117623 0)
(-0.0555315 -0.0105282 0)
(-0.0375521 -0.00880165 0)
(-0.023406 -0.00699162 0)
(-0.0127891 -0.0053163 0)
(-0.0052624 -0.00388809 0)
(-0.000282786 -0.00274882 0)
(0.00270631 -0.0018292 0)
(0.00413517 -0.00111576 0)
(0.00438969 -0.00058498 0)
(0.00377574 -0.000198426 0)
(0.00256965 4.79018e-05 0)
(0.00102548 0.000165404 0)
(-0.038879 0.126343 0)
(-0.119931 0.0518385 0)
(-0.145709 0.0150114 0)
(-0.142889 -0.00667849 0)
(-0.124955 -0.01794 0)
(-0.100916 -0.0219381 0)
(-0.0765 -0.0216074 0)
(-0.0546889 -0.0190281 0)
(-0.0366974 -0.015616 0)
(-0.0226584 -0.0122099 0)
(-0.0121966 -0.00910627 0)
(-0.00480452 -0.00650293 0)
(7.03125e-05 -0.00439346 0)
(0.00297295 -0.002724 0)
(0.00433552 -0.00143655 0)
(0.00453331 -0.000477389 0)
(0.00387615 0.000211443 0)
(0.0026316 0.00066632 0)
(0.00104623 0.000917049 0)
(-0.0540037 0.193915 0)
(-0.147086 0.0737647 0)
(-0.161295 0.0171184 0)
(-0.15134 -0.0130032 0)
(-0.128708 -0.0282708 0)
(-0.10163 -0.0330885 0)
(-0.0755849 -0.0318521 0)
(-0.0530978 -0.0276293 0)
(-0.0349801 -0.0224429 0)
(-0.0210508 -0.0173599 0)
(-0.0108175 -0.0128454 0)
(-0.00367231 -0.00904897 0)
(0.000989616 -0.00598023 0)
(0.0036972 -0.00356481 0)
(0.00489178 -0.00171265 0)
(0.00494619 -0.000330905 0)
(0.00416512 0.000658981 0)
(0.00281079 0.00130789 0)
(0.00114554 0.00163898 0)
(-0.0843174 0.291623 0)
(-0.195465 0.0925225 0)
(-0.182296 0.0136305 0)
(-0.162116 -0.0221954 0)
(-0.133306 -0.0405044 0)
(-0.102144 -0.0453436 0)
(-0.0740083 -0.0426062 0)
(-0.0507333 -0.036381 0)
(-0.0324845 -0.0292497 0)
(-0.0187724 -0.0224247 0)
(-0.00887986 -0.0164258 0)
(-0.00208337 -0.0114574 0)
(0.00226813 -0.00745292 0)
(0.00470024 -0.00431457 0)
(0.00565847 -0.0019086 0)
(0.00551226 -0.000115573 0)
(0.00455887 0.00116536 0)
(0.00304852 0.00200713 0)
(0.00120011 0.00244476 0)
(-0.13516 0.437738 0)
(-0.243085 0.0978999 0)
(-0.208945 0.000271876 0)
(-0.174873 -0.0349773 0)
(-0.138302 -0.0553081 0)
(-0.102101 -0.0590067 0)
(-0.0715543 -0.0539508 0)
(-0.0474455 -0.0453036 0)
(-0.0291766 -0.0359708 0)
(-0.0158154 -0.0272863 0)
(-0.00637654 -0.0198277 0)
(-3.8922e-05 -0.0137026 0)
(0.00389806 -0.00878255 0)
(0.00597042 -0.00493658 0)
(0.00662618 -0.00199902 0)
(0.00622471 0.000187683 0)
(0.00505416 0.00175044 0)
(0.00335553 0.00277674 0)
(0.00137529 0.00331641 0)
(-0.188254 0.640947 0)
(-0.25411 0.0975573 0)
(-0.239921 -0.0163012 0)
(-0.191401 -0.0530748 0)
(-0.143008 -0.0731866 0)
(-0.100989 -0.0742641 0)
(-0.06792 -0.0659242 0)
(-0.0431014 -0.0543044 0)
(-0.0250038 -0.0425565 0)
(-0.012133 -0.0319869 0)
(-0.00330987 -0.0230385 0)
(0.00244849 -0.0157352 0)
(0.00586755 -0.00992518 0)
(0.00749731 -0.00540449 0)
(0.00778479 -0.00196026 0)
(0.00707643 0.000601424 0)
(0.00564421 0.00242832 0)
(0.00371047 0.00362588 0)
(0.00146457 0.00422823 0)
(-0.247124 0.975473 0)
(-0.3457 0.112415 0)
(-0.285772 -0.0400202 0)
(-0.210587 -0.0792101 0)
(-0.146594 -0.0948825 0)
(-0.0982176 -0.0911452 0)
(-0.0628144 -0.0784157 0)
(-0.0375383 -0.0633235 0)
(-0.0198803 -0.0489423 0)
(-0.00773309 -0.0363302 0)
(0.000312265 -0.0259304 0)
(0.00536245 -0.0175065 0)
(0.0081626 -0.0108531 0)
(0.0092664 -0.00568533 0)
(0.0091217 -0.00176562 0)
(0.00805726 0.00114296 0)
(0.00632479 0.00321971 0)
(0.00413124 0.00458785 0)
(0.00167568 0.0053107 0)
(0.0124109 -0.237663 0)
(0.0834854 -0.316252 0)
(0.152259 -0.289892 0)
(0.22153 -0.293979 0)
(0.292926 -0.303338 0)
(0.366637 -0.314034 0)
(0.443354 -0.326764 0)
(0.523755 -0.341551 0)
(0.608516 -0.358187 0)
(0.698357 -0.376347 0)
(0.794033 -0.39551 0)
(0.896403 -0.414906 0)
(1.00636 -0.433156 0)
(1.12536 -0.448829 0)
(1.2545 -0.458192 0)
(1.39501 -0.455615 0)
(1.55576 -0.439599 0)
(1.7459 -0.40387 0)
(1.94231 -0.34793 0)
(2.01434 -0.0705889 0)
(1.98199 0.899522 0)
(1.409 2.42928 0)
(0.76993 3.08453 0)
(0.0131893 -0.293993 0)
(0.0810024 -0.386061 0)
(0.146041 -0.35729 0)
(0.212895 -0.363635 0)
(0.281763 -0.375036 0)
(0.352916 -0.388415 0)
(0.427139 -0.404561 0)
(0.505172 -0.42348 0)
(0.587798 -0.445012 0)
(0.675896 -0.46891 0)
(0.770455 -0.49476 0)
(0.872663 -0.52192 0)
(0.983947 -0.54942 0)
(1.10651 -0.57617 0)
(1.2414 -0.597649 0)
(1.39615 -0.615592 0)
(1.57709 -0.630828 0)
(1.74438 -0.63081 0)
(1.74717 -0.341527 0)
(1.24636 0.328015 0)
(0.544498 1.06177 0)
(0.479661 2.63518 0)
(0.576632 3.26327 0)
(0.0138117 -0.350955 0)
(0.0776498 -0.450746 0)
(0.138641 -0.421697 0)
(0.202467 -0.430426 0)
(0.268099 -0.443753 0)
(0.335999 -0.459845 0)
(0.406989 -0.479477 0)
(0.48185 -0.502671 0)
(0.561453 -0.529367 0)
(0.6468 -0.559441 0)
(0.739056 -0.592678 0)
(0.839597 -0.628592 0)
(0.950398 -0.667144 0)
(1.07313 -0.706033 0)
(1.21167 -0.745791 0)
(1.37353 -0.790021 0)
(1.5274 -0.836169 0)
(1.5434 -0.561544 0)
(0.891365 0.265528 0)
(0.22068 0.962064 0)
(-0.148797 1.43992 0)
(-0.17203 2.21729 0)
(0.356134 3.10409 0)
(0.0142103 -0.40776 0)
(0.0733898 -0.510024 0)
(0.13015 -0.482723 0)
(0.190289 -0.493683 0)
(0.252001 -0.508844 0)
(0.315938 -0.527633 0)
(0.382908 -0.550744 0)
(0.453717 -0.578264 0)
(0.529292 -0.61026 0)
(0.610713 -0.646764 0)
(0.699252 -0.687789 0)
(0.796339 -0.733126 0)
(0.904221 -0.783197 0)
(1.0236 -0.835934 0)
(1.1635 -0.895841 0)
(1.29624 -0.977628 0)
(1.36376 -0.828386 0)
(0.681474 0.150097 0)
(-0.0532414 0.940494 0)
(-0.30122 1.23727 0)
(-0.372059 1.497 0)
(-0.241664 1.84776 0)
(0.291708 2.70637 0)
(0.0143378 -0.463507 0)
(0.0682738 -0.563751 0)
(0.12062 -0.539869 0)
(0.17642 -0.552729 0)
(0.233561 -0.569629 0)
(0.29282 -0.591024 0)
(0.354954 -0.617509 0)
(0.420772 -0.649281 0)
(0.491233 -0.686558 0)
(0.567453 -0.729535 0)
(0.650746 -0.7784 0)
(0.742578 -0.833504 0)
(0.844443 -0.894289 0)
(0.960439 -0.962787 0)
(1.07783 -1.04823 0)
(1.19685 -1.07312 0)
(0.717445 -0.146804 0)
(-0.186221 0.911894 0)
(-0.387778 1.15772 0)
(-0.420841 1.28541 0)
(-0.387198 1.42271 0)
(-0.271517 1.56378 0)
(0.233078 2.42337 0)
(0.0141832 -0.517264 0)
(0.0623972 -0.611876 0)
(0.110118 -0.592597 0)
(0.160975 -0.606934 0)
(0.212944 -0.625445 0)
(0.266824 -0.649248 0)
(0.323297 -0.67888 0)
(0.383157 -0.714685 0)
(0.447373 -0.757051 0)
(0.517086 -0.80635 0)
(0.593578 -0.862836 0)
(0.678607 -0.927305 0)
(0.771631 -0.999129 0)
(0.879669 -1.07945 0)
(0.968073 -1.18479 0)
(0.85176 -0.688914 0)
(-0.203111 0.788888 0)
(-0.407648 1.11058 0)
(-0.402062 1.17055 0)
(-0.362226 1.25027 0)
(-0.297458 1.35158 0)
(-0.211205 1.47024 0)
(0.0260294 1.80099 0)
(0.0137695 -0.568121 0)
(0.0558847 -0.65441 0)
(0.0987523 -0.640382 0)
(0.144148 -0.655746 0)
(0.190406 -0.675664 0)
(0.238247 -0.701552 0)
(0.288255 -0.733958 0)
(0.341176 -0.77341 0)
(0.397985 -0.820497 0)
(0.459893 -0.875805 0)
(0.52809 -0.939684 0)
(0.604432 -1.01233 0)
(0.691294 -1.09457 0)
(0.761871 -1.1924 0)
(0.835136 -1.15893 0)
(-0.0257943 0.361497 0)
(-0.428868 1.06382 0)
(-0.39476 1.0868 0)
(-0.340448 1.12356 0)
(-0.27714 1.18604 0)
(-0.194271 1.26599 0)
(-0.084448 1.3612 0)
(0.0625657 1.4598 0)
(0.013114 -0.615224 0)
(0.0488911 -0.691421 0)
(0.0866831 -0.682747 0)
(0.126217 -0.698706 0)
(0.166314 -0.71972 0)
(0.207529 -0.747228 0)
(0.250314 -0.781859 0)
(0.295312 -0.82436 0)
(0.343461 -0.875589 0)
(0.39618 -0.936425 0)
(0.455094 -1.0076 0)
(0.520651 -1.08923 0)
(0.598072 -1.17255 0)
(0.648373 -1.28327 0)
(0.44399 -0.575113 0)
(-0.464714 0.947046 0)
(-0.420733 1.01463 0)
(-0.350825 1.02548 0)
(-0.287266 1.06053 0)
(-0.213477 1.10777 0)
(-0.119879 1.16235 0)
(0.00341629 1.21935 0)
(0.171278 1.27039 0)
(0.012247 -0.657872 0)
(0.0415929 -0.72302 0)
(0.0741231 -0.719331 0)
(0.107538 -0.73548 0)
(0.141141 -0.757158 0)
(0.175258 -0.785662 0)
(0.21016 -0.821746 0)
(0.246313 -0.866412 0)
(0.284533 -0.92093 0)
(0.326424 -0.986731 0)
(0.375169 -1.06505 0)
(0.432919 -1.15847 0)
(0.477061 -1.24259 0)
(0.547875 -1.24548 0)
(-0.339437 0.469993 0)
(-0.46762 0.954537 0)
(-0.385198 0.937541 0)
(-0.318227 0.960088 0)
(-0.249826 0.989872 0)
(-0.171682 1.02255 0)
(-0.0770241 1.0545 0)
(0.0411018 1.07948 0)
(0.189747 1.08666 0)
(0.0112295 -0.695528 0)
(0.034178 -0.74934 0)
(0.0613624 -0.749896 0)
(0.0886044 -0.765855 0)
(0.11559 -0.787655 0)
(0.142427 -0.816406 0)
(0.169174 -0.852998 0)
(0.195997 -0.898693 0)
(0.223132 -0.955249 0)
(0.250724 -1.0248 0)
(0.279739 -1.10895 0)
(0.320229 -1.21128 0)
(0.369346 -1.32944 0)
(0.191536 -0.632505 0)
(-0.565151 0.849676 0)
(-0.43366 0.840134 0)
(-0.356518 0.866705 0)
(-0.291057 0.893148 0)
(-0.222936 0.917012 0)
(-0.146829 0.937945 0)
(-0.058272 0.952792 0)
(0.0461827 0.956121 0)
(0.167666 0.939112 0)
(0.00991351 -0.727924 0)
(0.0268691 -0.770689 0)
(0.0489131 -0.774532 0)
(0.070196 -0.789953 0)
(0.0907087 -0.811304 0)
(0.110262 -0.839477 0)
(0.12818 -0.875273 0)
(0.143384 -0.91973 0)
(0.153534 -0.97382 0)
(0.155869 -1.04011 0)
(0.151182 -1.12422 0)
(0.153925 -1.26132 0)
(0.184611 -1.34217 0)
(-0.392646 0.186632 0)
(-0.480077 0.768555 0)
(-0.389737 0.76774 0)
(-0.326445 0.803469 0)
(-0.266778 0.829173 0)
(-0.204279 0.847728 0)
(-0.134731 0.859383 0)
(-0.0558002 0.862219 0)
(0.0332431 0.85258 0)
(0.130869 0.824704 0)
(0.00800033 -0.75459 0)
(0.0191813 -0.787218 0)
(0.0359651 -0.793237 0)
(0.0506008 -0.80754 0)
(0.0632584 -0.827517 0)
(0.0727477 -0.853147 0)
(0.0770916 -0.88477 0)
(0.0753626 -0.922885 0)
(0.0695971 -0.968677 0)
(0.0733935 -1.03332 0)
(0.115124 -1.1338 0)
(0.225205 -1.29165 0)
(0.0446231 -1.03176 0)
(-0.447751 0.506113 0)
(-0.355828 0.643907 0)
(-0.32986 0.716411 0)
(-0.292462 0.752292 0)
(-0.24644 0.773788 0)
(-0.193172 0.785942 0)
(-0.132281 0.789601 0)
(-0.0637996 0.784002 0)
(0.0111451 0.767083 0)
(0.0899913 0.735315 0)
(0.014863 -0.778988 0)
(0.0110881 -0.797427 0)
(0.021709 -0.804879 0)
(0.0303233 -0.817245 0)
(0.0382187 -0.834287 0)
(0.0490711 -0.856803 0)
(0.0727421 -0.887463 0)
(0.134023 -0.935275 0)
(0.258693 -1.01375 0)
(0.512856 -1.1541 0)
(0.686801 -1.28891 0)
(0.328833 -0.967732 0)
(0.0174818 -0.955841 0)
(-0.296583 0.633701 0)
(-0.267143 0.628312 0)
(-0.279482 0.690958 0)
(-0.265334 0.717324 0)
(-0.233521 0.729499 0)
(-0.18995 0.733088 0)
(-0.137579 0.729072 0)
(-0.0785636 0.717182 0)
(-0.0151536 0.696095 0)
(0.0498015 0.663841 0)
(0.0250002 -0.823961 0)
(0.0345492 -0.808736 0)
(0.064971 -0.821186 0)
(0.121794 -0.84409 0)
(0.190134 -0.871817 0)
(0.275311 -0.921554 0)
(0.381995 -1.02186 0)
(0.456097 -1.12264 0)
(0.520319 -1.17632 0)
(0.524185 -1.18181 0)
(0.409662 -1.00353 0)
(0.172133 -0.537802 0)
(-0.0188233 -0.972964 0)
(-0.198305 0.760935 0)
(-0.238696 0.677802 0)
(-0.258032 0.694096 0)
(-0.255146 0.697823 0)
(-0.232215 0.695114 0)
(-0.195498 0.6881 0)
(-0.149604 0.676491 0)
(-0.0978651 0.659601 0)
(-0.0430627 0.636147 0)
(0.0120041 0.604825 0)
(0.00161265 -0.837556 0)
(0.0431997 -0.851618 0)
(0.0718587 -0.863724 0)
(0.101947 -0.892383 0)
(0.138489 -0.932256 0)
(0.183398 -0.993892 0)
(0.233246 -1.07769 0)
(0.290167 -1.1683 0)
(0.376637 -1.23835 0)
(0.50864 -1.20883 0)
(0.576298 -0.886016 0)
(0.415247 -0.339261 0)
(-0.0133715 -0.783037 0)
(-0.134816 0.870036 0)
(-0.240566 0.746199 0)
(-0.268532 0.711568 0)
(-0.266406 0.686451 0)
(-0.244914 0.666085 0)
(-0.210263 0.647876 0)
(-0.167531 0.629334 0)
(-0.120294 0.608609 0)
(-0.0712467 0.583976 0)
(-0.0228629 0.554282 0)
(0.000987495 -0.845145 0)
(0.0138936 -0.876145 0)
(0.0276217 -0.886339 0)
(0.0370615 -0.91474 0)
(0.0475867 -0.959329 0)
(0.060256 -1.02596 0)
(0.075986 -1.11757 0)
(0.107741 -1.23608 0)
(0.205923 -1.38909 0)
(0.391369 -1.39489 0)
(0.458769 -0.849238 0)
(0.303521 -0.00181379 0)
(-0.18099 -0.355728 0)
(-0.0586094 0.968017 0)
(-0.26251 0.806825 0)
(-0.308781 0.725606 0)
(-0.299543 0.67224 0)
(-0.271311 0.635696 0)
(-0.233266 0.608123 0)
(-0.190057 0.58448 0)
(-0.144539 0.561483 0)
(-0.0987673 0.536826 0)
(-0.0545751 0.509272 0)
(-0.00407404 -0.832476 0)
(-0.0131556 -0.876324 0)
(-0.0246651 -0.885965 0)
(-0.0376268 -0.911822 0)
(-0.0535699 -0.955373 0)
(-0.0741057 -1.02094 0)
(-0.10039 -1.11518 0)
(-0.126628 -1.26271 0)
(-0.125731 -1.50377 0)
(-0.111806 -1.48291 0)
(-0.173004 -0.810845 0)
(-0.220447 0.256113 0)
(-0.238923 -0.0930775 0)
(-0.232812 1.15656 0)
(-0.373218 0.852532 0)
(-0.38598 0.719132 0)
(-0.351767 0.643363 0)
(-0.307923 0.596825 0)
(-0.261651 0.564541 0)
(-0.214988 0.538998 0)
(-0.169029 0.515877 0)
(-0.124694 0.492565 0)
(-0.0829357 0.467655 0)
(-0.0086538 -0.800363 0)
(-0.0382985 -0.854573 0)
(-0.0685117 -0.864168 0)
(-0.100977 -0.886458 0)
(-0.139536 -0.923697 0)
(-0.189204 -0.97876 0)
(-0.257067 -1.05786 0)
(-0.356529 -1.18372 0)
(-0.539138 -1.38896 0)
(-0.77111 -1.39724 0)
(-0.829666 -0.7965 0)
(-0.554218 -0.079536 0)
(-0.644647 0.231476 0)
(-0.917734 1.20075 0)
(-0.606714 0.782189 0)
(-0.491367 0.658198 0)
(-0.411945 0.587397 0)
(-0.347188 0.544067 0)
(-0.290614 0.514266 0)
(-0.239285 0.491 0)
(-0.191873 0.470266 0)
(-0.147995 0.449783 0)
(-0.107686 0.428134 0)
(-0.0108059 -0.757207 0)
(-0.0531308 -0.81749 0)
(-0.0958542 -0.825936 0)
(-0.142074 -0.843039 0)
(-0.196541 -0.870121 0)
(-0.265402 -0.90776 0)
(-0.358452 -0.956978 0)
(-0.495339 -1.01288 0)
(-0.735025 -1.08195 0)
(-1.13013 -1.09881 0)
(-1.48982 -0.769318 0)
(-1.5446 -0.0847672 0)
(-1.44326 0.483693 0)
(-1.02709 0.656245 0)
(-0.732535 0.587307 0)
(-0.564596 0.538935 0)
(-0.457459 0.50399 0)
(-0.37843 0.477707 0)
(-0.314491 0.45739 0)
(-0.259715 0.440268 0)
(-0.211232 0.424206 0)
(-0.167714 0.407866 0)
(-0.128543 0.390107 0)
(-0.0112671 -0.710627 0)
(-0.0593877 -0.771301 0)
(-0.109015 -0.777451 0)
(-0.163132 -0.788247 0)
(-0.225858 -0.803808 0)
(-0.302802 -0.822654 0)
(-0.401514 -0.841384 0)
(-0.531957 -0.845808 0)
(-0.704138 -0.809272 0)
(-0.95111 -0.732031 0)
(-1.20568 -0.524716 0)
(-1.27934 -0.174875 0)
(-1.12643 0.139724 0)
(-0.890872 0.311742 0)
(-0.71826 0.394225 0)
(-0.578572 0.410359 0)
(-0.474751 0.410795 0)
(-0.394387 0.405063 0)
(-0.32906 0.39721 0)
(-0.273753 0.388294 0)
(-0.225563 0.37825 0)
(-0.182951 0.366867 0)
(-0.145007 0.353354 0)
(-0.0114581 -0.662477 0)
(-0.0618857 -0.720799 0)
(-0.114542 -0.723779 0)
(-0.171705 -0.728183 0)
(-0.236541 -0.733188 0)
(-0.31287 -0.736164 0)
(-0.404915 -0.732318 0)
(-0.516483 -0.712099 0)
(-0.64003 -0.653647 0)
(-0.766468 -0.548814 0)
(-0.882409 -0.394205 0)
(-0.926541 -0.184644 0)
(-0.880242 0.0233275 0)
(-0.778417 0.170861 0)
(-0.660385 0.255308 0)
(-0.556127 0.301345 0)
(-0.468187 0.324094 0)
(-0.395056 0.33453 0)
(-0.333431 0.338058 0)
(-0.280458 0.337303 0)
(-0.234143 0.33349 0)
(-0.193237 0.327215 0)
(-0.156827 0.317905 0)
(-0.0115628 -0.613652 0)
(-0.0626697 -0.668761 0)
(-0.115776 -0.66856 0)
(-0.172685 -0.667479 0)
(-0.235517 -0.664131 0)
(-0.30641 -0.655781 0)
(-0.38701 -0.638157 0)
(-0.477509 -0.604659 0)
(-0.573453 -0.545479 0)
(-0.661323 -0.452084 0)
(-0.727708 -0.326993 0)
(-0.755034 -0.18006 0)
(-0.731481 -0.0360473 0)
(-0.670105 0.079328 0)
(-0.594174 0.16155 0)
(-0.517622 0.215954 0)
(-0.447047 0.250156 0)
(-0.384324 0.271026 0)
(-0.329127 0.283133 0)
(-0.280431 0.28923 0)
(-0.237259 0.291043 0)
(-0.198798 0.289476 0)
(-0.164409 0.284139 0)
(-0.0112731 -0.565405 0)
(-0.0616888 -0.617002 0)
(-0.113463 -0.614192 0)
(-0.168073 -0.608946 0)
(-0.226733 -0.599814 0)
(-0.290367 -0.584487 0)
(-0.359066 -0.559762 0)
(-0.431519 -0.521317 0)
(-0.503735 -0.464395 0)
(-0.567683 -0.385816 0)
(-0.61283 -0.287398 0)
(-0.630525 -0.177747 0)
(-0.617692 -0.070182 0)
(-0.580637 0.0230262 0)
(-0.529814 0.0965681 0)
(-0.473787 0.150956 0)
(-0.418325 0.189608 0)
(-0.366168 0.216259 0)
(-0.318318 0.234062 0)
(-0.274882 0.245331 0)
(-0.23563 0.251748 0)
(-0.200168 0.254203 0)
(-0.168247 0.252492 0)
(-0.0107554 -0.519096 0)
(-0.0591672 -0.56698 0)
(-0.108338 -0.562288 0)
(-0.159401 -0.554202 0)
(-0.212925 -0.541542 0)
(-0.269024 -0.522562 0)
(-0.32712 -0.495051 0)
(-0.385531 -0.456369 0)
(-0.440944 -0.404229 0)
(-0.488273 -0.33791 0)
(-0.521442 -0.25945 0)
(-0.535611 -0.174272 0)
(-0.529475 -0.0900429 0)
(-0.506107 -0.013759 0)
(-0.470968 0.0505099 0)
(-0.429699 0.10171 0)
(-0.386414 0.140961 0)
(-0.34374 0.170186 0)
(-0.30311 0.191363 0)
(-0.265169 0.206196 0)
(-0.230157 0.216096 0)
(-0.198012 0.221803 0)
(-0.168836 0.223271 0)
(-0.010065 -0.475469 0)
(-0.0555978 -0.519703 0)
(-0.101457 -0.513797 0)
(-0.148351 -0.504059 0)
(-0.196406 -0.489588 0)
(-0.245382 -0.469188 0)
(-0.2945 -0.44141 0)
(-0.342205 -0.404743 0)
(-0.385949 -0.358191 0)
(-0.422396 -0.30196 0)
(-0.447995 -0.237898 0)
(-0.460052 -0.169562 0)
(-0.457875 -0.101644 0)
(-0.442952 -0.0383766 0)
(-0.418364 0.0174252 0)
(-0.387665 0.0642775 0)
(-0.353922 0.102176 0)
(-0.319301 0.131984 0)
(-0.285221 0.154836 0)
(-0.252556 0.1719 0)
(-0.221771 0.18426 0)
(-0.193043 0.192491 0)
(-0.166713 0.196629 0)
(-0.00926203 -0.43505 0)
(-0.0514982 -0.475758 0)
(-0.0936141 -0.469211 0)
(-0.136119 -0.458768 0)
(-0.178867 -0.443755 0)
(-0.221473 -0.423365 0)
(-0.263151 -0.396686 0)
(-0.302612 -0.362928 0)
(-0.338005 -0.321792 0)
(-0.367107 -0.273801 0)
(-0.387754 -0.220494 0)
(-0.398356 -0.164321 0)
(-0.398473 -0.108212 0)
(-0.389004 -0.0550189 0)
(-0.371653 -0.00662469 0)
(-0.348646 0.035689 0)
(-0.322298 0.0713387 0)
(-0.294289 0.10055 0)
(-0.265927 0.123933 0)
(-0.238068 0.14221 0)
(-0.211297 0.156196 0)
(-0.185902 0.166294 0)
(-0.16239 0.172588 0)
(-0.00841259 -0.397989 0)
(-0.0470785 -0.435461 0)
(-0.0853062 -0.428744 0)
(-0.123451 -0.41825 0)
(-0.161303 -0.403487 0)
(-0.198387 -0.383936 0)
(-0.233983 -0.359052 0)
(-0.267051 -0.328458 0)
(-0.296265 -0.292224 0)
(-0.320138 -0.250954 0)
(-0.337299 -0.205887 0)
(-0.346808 -0.158799 0)
(-0.348359 -0.111631 0)
(-0.342437 -0.0662654 0)
(-0.330154 -0.0241814 0)
(-0.312898 0.0137563 0)
(-0.292233 0.0468102 0)
(-0.269622 0.0748009 0)
(-0.246105 0.0979539 0)
(-0.222489 0.116731 0)
(-0.199394 0.131691 0)
(-0.177134 0.143111 0)
(-0.156328 0.151096 0)
(-0.00755867 -0.364481 0)
(-0.0425575 -0.398967 0)
(-0.0768799 -0.392386 0)
(-0.110893 -0.382195 0)
(-0.144286 -0.368118 0)
(-0.176616 -0.349829 0)
(-0.20724 -0.327017 0)
(-0.235331 -0.299553 0)
(-0.259894 -0.267656 0)
(-0.279908 -0.231917 0)
(-0.294486 -0.193324 0)
(-0.303059 -0.153201 0)
(-0.305472 -0.112954 0)
(-0.30196 -0.0738522 0)
(-0.29327 -0.0369982 0)
(-0.280311 -0.00313113 0)
(-0.264077 0.0272787 0)
(-0.245793 0.0537179 0)
(-0.226318 0.0761994 0)
(-0.2064 0.094997 0)
(-0.186574 0.110445 0)
(-0.167189 0.122758 0)
(-0.148896 0.132015 0)
(-0.00673863 -0.334448 0)
(-0.0380742 -0.366215 0)
(-0.0687268 -0.359933 0)
(-0.0988845 -0.350289 0)
(-0.128269 -0.337127 0)
(-0.156463 -0.320267 0)
(-0.182939 -0.29955 0)
(-0.207029 -0.274995 0)
(-0.227976 -0.246885 0)
(-0.245069 -0.215749 0)
(-0.257696 -0.182375 0)
(-0.265486 -0.147747 0)
(-0.268364 -0.112938 0)
(-0.266522 -0.0789253 0)
(-0.260366 -0.0464286 0)
(-0.250589 -0.0161173 0)
(-0.237878 0.011665 0)
(-0.22305 0.0364552 0)
(-0.206967 0.0580451 0)
(-0.190185 0.0765224 0)
(-0.173232 0.0921224 0)
(-0.156417 0.104971 0)
(-0.140407 0.115171 0)
(-0.00594434 -0.307804 0)
(-0.03385 -0.337051 0)
(-0.0610197 -0.331133 0)
(-0.0876709 -0.322148 0)
(-0.113487 -0.309999 0)
(-0.1381 -0.294581 0)
(-0.161056 -0.275851 0)
(-0.181817 -0.253923 0)
(-0.199829 -0.229086 0)
(-0.214569 -0.201792 0)
(-0.225619 -0.172678 0)
(-0.232723 -0.142497 0)
(-0.235823 -0.112058 0)
(-0.235111 -0.0821497 0)
(-0.230863 -0.0533481 0)
(-0.22348 -0.0260832 0)
(-0.213534 -0.000794122 0)
(-0.201542 0.0223382 0)
(-0.188231 0.0428892 0)
(-0.174105 0.0608568 0)
(-0.159659 0.0763679 0)
(-0.145104 0.0894753 0)
(-0.131164 0.10039 0)
(-0.00523457 -0.284258 0)
(-0.0298607 -0.311202 0)
(-0.0538178 -0.305701 0)
(-0.0772448 -0.29738 0)
(-0.0998747 -0.286219 0)
(-0.121374 -0.272183 0)
(-0.141343 -0.255299 0)
(-0.159341 -0.23572 0)
(-0.174933 -0.213705 0)
(-0.187743 -0.189634 0)
(-0.197474 -0.164027 0)
(-0.20394 -0.137484 0)
(-0.207128 -0.110627 0)
(-0.207165 -0.0840769 0)
(-0.204287 -0.0583611 0)
(-0.198736 -0.0337893 0)
(-0.190921 -0.010682 0)
(-0.181251 0.0107434 0)
(-0.170211 0.030228 0)
(-0.158349 0.0475951 0)
(-0.146043 0.0628479 0)
(-0.133493 0.0760285 0)
(-0.12141 0.087482 0)
(-0.00456384 -0.263708 0)
(-0.0261901 -0.288485 0)
(-0.0471783 -0.283361 0)
(-0.0676627 -0.275684 0)
(-0.087405 -0.265453 0)
(-0.106122 -0.252683 0)
(-0.123475 -0.23746 0)
(-0.139105 -0.219938 0)
(-0.152674 -0.200339 0)
(-0.163888 -0.178984 0)
(-0.172511 -0.156302 0)
(-0.178423 -0.132778 0)
(-0.181608 -0.108899 0)
(-0.182144 -0.0851482 0)
(-0.180225 -0.0619811 0)
(-0.176085 -0.0397399 0)
(-0.169927 -0.0185895 0)
(-0.162097 0.00123616 0)
(-0.152957 0.0196727 0)
(-0.142986 0.0363755 0)
(-0.132536 0.0512913 0)
(-0.12176 0.0644097 0)
(-0.111327 0.0762503 0)
(-0.00398584 -0.24579 0)
(-0.0228467 -0.268598 0)
(-0.0411481 -0.263864 0)
(-0.0589838 -0.256783 0)
(-0.0761297 -0.24739 0)
(-0.0923376 -0.235753 0)
(-0.107335 -0.221978 0)
(-0.12085 -0.206217 0)
(-0.132624 -0.188666 0)
(-0.142416 -0.169602 0)
(-0.15005 -0.149377 0)
(-0.155429 -0.128365 0)
(-0.158533 -0.106957 0)
(-0.159428 -0.0855581 0)
(-0.158249 -0.0645571 0)
(-0.155185 -0.0442912 0)
(-0.150381 -0.0249347 0)
(-0.144019 -0.00652533 0)
(-0.13646 0.0108587 0)
(-0.128089 0.0269057 0)
(-0.119255 0.0414503 0)
(-0.110036 0.0544107 0)
(-0.101075 0.0665154 0)
(-0.00343007 -0.230299 0)
(-0.0197917 -0.251324 0)
(-0.0356431 -0.246921 0)
(-0.0510769 -0.240393 0)
(-0.0658798 -0.231778 0)
(-0.0798371 -0.221154 0)
(-0.0927306 -0.208642 0)
(-0.104351 -0.194384 0)
(-0.114495 -0.178559 0)
(-0.122983 -0.161404 0)
(-0.129683 -0.1432 0)
(-0.134522 -0.124255 0)
(-0.137488 -0.104905 0)
(-0.138619 -0.085496 0)
(-0.137996 -0.0663494 0)
(-0.135753 -0.0477515 0)
(-0.132045 -0.0299308 0)
(-0.126965 -0.0128859 0)
(-0.120711 0.00347861 0)
(-0.113684 0.0189313 0)
(-0.106232 0.0331013 0)
(-0.0984145 0.0458669 0)
(-0.0907785 0.0581073 0)
(-0.0029266 -0.216919 0)
(-0.0170109 -0.236389 0)
(-0.0306037 -0.232333 0)
(-0.0438053 -0.226313 0)
(-0.056447 -0.218396 0)
(-0.0683514 -0.208676 0)
(-0.0793465 -0.197258 0)
(-0.089262 -0.18427 0)
(-0.0979378 -0.169881 0)
(-0.105239 -0.154296 0)
(-0.111065 -0.137756 0)
(-0.115364 -0.120524 0)
(-0.118117 -0.102885 0)
(-0.119343 -0.0851317 0)
(-0.119102 -0.0675358 0)
(-0.117493 -0.050351 0)
(-0.114653 -0.0338136 0)
(-0.110683 -0.0180268 0)
(-0.105587 -0.00266783 0)
(-0.0997098 0.0122434 0)
(-0.0934769 0.0260908 0)
(-0.08695 0.038668 0)
(-0.0805141 0.0508933 0)
(-0.00247753 -0.205509 0)
(-0.0144642 -0.223663 0)
(-0.0259765 -0.21989 0)
(-0.0371192 -0.214319 0)
(-0.047769 -0.207017 0)
(-0.0577932 -0.198064 0)
(-0.067051 -0.187561 0)
(-0.0754061 -0.175635 0)
(-0.0827319 -0.162447 0)
(-0.0889232 -0.148174 0)
(-0.0939022 -0.133019 0)
(-0.0976213 -0.117201 0)
(-0.100065 -0.100963 0)
(-0.101256 -0.0845653 0)
(-0.101249 -0.0682534 0)
(-0.100125 -0.0522604 0)
(-0.0979888 -0.0367963 0)
(-0.0949506 -0.0220287 0)
(-0.090964 -0.00769196 0)
(-0.0861489 0.0066766 0)
(-0.0810081 0.0202882 0)
(-0.0756508 0.032694 0)
(-0.0702933 0.0447686 0)
(-0.00206127 -0.195943 0)
(-0.012071 -0.21294 0)
(-0.0216365 -0.209458 0)
(-0.0308915 -0.204283 0)
(-0.0397333 -0.197495 0)
(-0.0480454 -0.189181 0)
(-0.0557166 -0.179445 0)
(-0.0626382 -0.168412 0)
(-0.0687104 -0.156224 0)
(-0.0738501 -0.143033 0)
(-0.0779939 -0.129007 0)
(-0.0811049 -0.114337 0)
(-0.083177 -0.0992395 0)
(-0.0842379 -0.0839484 0)
(-0.0843415 -0.068686 0)
(-0.0835593 -0.0536616 0)
(-0.0819707 -0.0390603 0)
(-0.0796775 -0.0250558 0)
(-0.0767184 -0.0115967 0)
(-0.0729515 0.00210862 0)
(-0.0687954 0.0155543 0)
(-0.0644868 0.0278141 0)
(-0.060098 0.0396428 0)
(-0.00164847 -0.18824 0)
(-0.00975657 -0.20416 0)
(-0.0174978 -0.200906 0)
(-0.0249962 -0.196068 0)
(-0.0321525 -0.189717 0)
(-0.0388769 -0.181941 0)
(-0.0450782 -0.172841 0)
(-0.0506711 -0.162534 0)
(-0.0555806 -0.15115 0)
(-0.059743 -0.138822 0)
(-0.0631076 -0.125705 0)
(-0.0656429 -0.111971 0)
(-0.067343 -0.0978052 0)
(-0.0682305 -0.0834107 0)
(-0.0683543 -0.0689814 0)
(-0.0677803 -0.0547081 0)
(-0.0665882 -0.0407655 0)
(-0.0648732 -0.0273101 0)
(-0.0627439 -0.014447 0)
(-0.0600105 -0.00147689 0)
(-0.0567769 0.0117827 0)
(-0.053424 0.023937 0)
(-0.049949 0.0354711 0)
(-0.00119333 -0.182412 0)
(-0.00752284 -0.197205 0)
(-0.0135424 -0.19412 0)
(-0.0193849 -0.189543 0)
(-0.0249516 -0.183537 0)
(-0.0301653 -0.176185 0)
(-0.0349617 -0.167585 0)
(-0.0392879 -0.157845 0)
(-0.043096 -0.147085 0)
(-0.0463409 -0.135437 0)
(-0.0489809 -0.123045 0)
(-0.0509844 -0.110064 0)
(-0.0523374 -0.0966488 0)
(-0.0530496 -0.0829699 0)
(-0.0531577 -0.0691952 0)
(-0.0527239 -0.0554982 0)
(-0.0518314 -0.042044 0)
(-0.0505741 -0.0289757 0)
(-0.0490673 -0.0164356 0)
(-0.0472346 -0.00406756 0)
(-0.0448947 0.0089006 0)
(-0.042431 0.020993 0)