/*--------------------------------*- C++ -*----------------------------------*\
| =========                 |                                                 |
| \\      /  F ield         | OpenFOAM: The Open Source CFD Toolbox           |
|  \\    /   O peration     | Version:  v1912                                 |
|   \\  /    A nd           | Website:  www.openfoam.com                      |
|    \\/     M anipulation  |                                                 |
\*---------------------------------------------------------------------------*/
FoamFile
{
    version     2.0;
    format      ascii;
    class       surfaceScalarField;
    location    "0.05";
    object      alphaPhi0.water;
}
// * * * * * * * * * * * * * * * * * * * * * * * * * * * * * * * * * * * * * //

dimensions      [0 3 -1 0 0 0 0];
oriented        oriented;


internalField   nonuniform List<scalar> 
17936
(
7.55718e-07
-1.51506e-06
7.59347e-07
-1.54565e-06
2.32802e-06
-7.82378e-07
-3.11847e-06
3.9217e-06
-8.03234e-07
-4.74127e-06
5.5808e-06
-8.39533e-07
-6.44466e-06
7.33753e-06
-8.92867e-07
-8.26514e-06
9.23373e-06
-9.68587e-07
-1.02507e-05
1.13245e-05
-1.07385e-06
-1.24656e-05
1.36867e-05
-1.22111e-06
-1.50033e-05
1.64352e-05
-1.43191e-06
-1.80088e-05
1.9756e-05
-1.74725e-06
-2.17292e-05
2.39602e-05
-2.23097e-06
-2.66169e-05
2.97076e-05
-3.09078e-06
-3.3226e-05
3.65388e-05
-3.64267e-06
-3.87113e-05
3.55217e-05
-4.41448e-06
-1.45683e-05
3.60953e-06
-1.33971e-07
-1.70053e-06
6.69932e-07
3.0988e-07
-2.23246e-07
6.68925e-08
5.22998e-08
-1.76977e-08
4.04698e-09
4.57606e-09
-8.17307e-10
1.4925e-10
1.9846e-10
-2.50716e-11
3.71349e-12
5.78072e-12
-5.1634e-13
1.83845e-13
1.30672e-13
-3.55167e-15
1.816e-15
9.97411e-16
-5.68203e-18
2.33032e-18
1.74414e-18
2.27337e-06
-3.02966e-06
7.56283e-07
-1.54968e-06
2.33395e-06
1.56808e-06
-2.35236e-06
-3.126e-06
3.93065e-06
1.60969e-06
-2.41435e-06
-4.75137e-06
5.59188e-06
1.68221e-06
-2.52272e-06
-6.45629e-06
7.34935e-06
1.78876e-06
-2.68182e-06
-8.27635e-06
9.24348e-06
1.93974e-06
-2.90687e-06
-1.02578e-05
1.13278e-05
2.14948e-06
-3.21941e-06
-1.24631e-05
1.36758e-05
2.44271e-06
-3.65543e-06
-1.49811e-05
1.63977e-05
2.86225e-06
-4.27886e-06
-1.79488e-05
1.96657e-05
3.48855e-06
-5.20542e-06
-2.15869e-05
2.37693e-05
4.45365e-06
-6.63608e-06
-2.62964e-05
2.91641e-05
6.04198e-06
-8.90968e-06
-3.27611e-05
3.66065e-05
7.85362e-06
-1.28234e-05
-3.30562e-05
1.24288e-05
8.69727e-06
-8.32356e-06
-3.91516e-06
2.24032e-06
1.10631e-06
-9.23244e-07
-1.21922e-06
5.93922e-07
-2.45534e-07
9.32437e-08
-1.86044e-07
2.69532e-08
-1.22545e-07
5.42201e-08
-8.32434e-09
2.9298e-09
-1.45019e-08
5.35541e-09
-7.90957e-10
1.78958e-10
-6.64409e-10
3.6436e-10
-3.53476e-11
7.23063e-12
-2.32786e-11
1.6062e-11
-9.67031e-13
5.52517e-13
-6.40287e-13
5.22426e-13
-7.45223e-15
4.61973e-15
-6.57203e-15
6.27751e-15
-2.34569e-17
8.5763e-18
-2.02295e-17
2.51967e-17
3.78343e-06
-4.53444e-06
7.50999e-07
-1.5401e-06
2.31925e-06
3.13451e-06
-3.91366e-06
-3.10598e-06
3.9048e-06
3.21648e-06
-4.01529e-06
-4.719e-06
5.55229e-06
3.36007e-06
-4.19335e-06
-6.40861e-06
7.29239e-06
3.57081e-06
-4.4546e-06
-8.2086e-06
9.16302e-06
3.86845e-06
-4.82287e-06
-1.01622e-05
1.12139e-05
4.2813e-06
-5.33295e-06
-1.23271e-05
1.35127e-05
4.8561e-06
-6.0417e-06
-1.47836e-05
1.61563e-05
5.67604e-06
-7.0487e-06
-1.76507e-05
1.92924e-05
6.88894e-06
-8.53064e-06
-2.11131e-05
2.3161e-05
8.75934e-06
-1.08073e-05
-2.54991e-05
2.81188e-05
1.16639e-05
-1.42836e-05
-3.1509e-05
3.25592e-05
1.78143e-05
-2.21746e-05
-1.5022e-05
3.3894e-06
5.9751e-06
-4.55497e-06
-1.59863e-06
6.65928e-07
5.18407e-07
-1.96023e-07
-3.15321e-07
1.35834e-07
-7.23935e-08
6.96257e-08
-5.02974e-08
1.56774e-08
-1.97685e-08
1.49175e-08
-4.38335e-09
1.13785e-09
-2.62993e-09
1.42132e-09
-2.70514e-10
6.01431e-11
-2.06821e-10
1.17456e-10
-1.13552e-11
3.57308e-12
-1.0402e-11
6.67874e-12
-2.73798e-13
1.82729e-13
-3.33764e-13
2.40564e-13
-1.75003e-15
1.25582e-15
-4.13488e-15
3.30711e-15
-1.40276e-17
4.14118e-18
-1.85489e-17
1.76789e-17
5.28182e-06
-6.02495e-06
7.43131e-07
-1.52539e-06
2.29656e-06
4.68894e-06
-5.4601e-06
-3.07486e-06
3.86454e-06
4.80992e-06
-5.59959e-06
-4.6689e-06
5.4912e-06
5.02156e-06
-5.84386e-06
-6.33528e-06
7.20509e-06
5.33189e-06
-6.2017e-06
-8.10526e-06
9.04084e-06
5.76857e-06
-6.70415e-06
-1.00179e-05
1.1043e-05
6.37225e-06
-7.39738e-06
-1.21241e-05
1.32701e-05
7.20889e-06
-8.35488e-06
-1.4492e-05
1.58027e-05
8.39223e-06
-9.70292e-06
-1.72176e-05
1.87554e-05
1.01235e-05
-1.16613e-05
-2.04384e-05
2.22981e-05
1.27661e-05
-1.46257e-05
-2.43655e-05
2.66316e-05
1.67408e-05
-1.9007e-05
-2.94662e-05
2.41751e-05
2.57393e-05
-2.85823e-05
-3.99113e-06
1.56036e-06
3.71355e-06
-3.04192e-06
-5.19092e-07
1.86655e-07
-6.96165e-09
6.06648e-08
-6.7039e-08
2.58243e-08
-5.66143e-08
4.04251e-08
-1.03217e-08
3.72328e-09
-8.92085e-09
5.07437e-09
-1.13092e-09
3.02039e-10
-7.84188e-10
4.38677e-10
-7.18183e-11
1.93061e-11
-6.45772e-11
3.67488e-11
-2.97487e-12
1.37906e-12
-3.65774e-12
2.31271e-12
-6.00464e-14
4.31681e-14
-1.17477e-13
8.1376e-14
-3.17071e-16
3.30375e-16
-1.73851e-15
1.27815e-15
-5.80587e-18
1.54141e-18
-1.03219e-17
9.14252e-18
6.76315e-06
-7.49613e-06
7.32975e-07
-1.50526e-06
2.2659e-06
6.22644e-06
-6.98708e-06
-3.03317e-06
3.81102e-06
6.38374e-06
-7.16159e-06
-4.60232e-06
5.41031e-06
6.65945e-06
-7.46744e-06
-6.2383e-06
7.09002e-06
7.06298e-06
-7.91471e-06
-7.96939e-06
8.88098e-06
7.62841e-06
-8.53999e-06
-9.82962e-06
1.08211e-05
8.40658e-06
-9.39804e-06
-1.18618e-05
1.2959e-05
9.47746e-06
-1.05747e-05
-1.41204e-05
1.53555e-05
1.09774e-05
-1.22125e-05
-1.66745e-05
1.80889e-05
1.31394e-05
-1.45538e-05
-1.96102e-05
2.12542e-05
1.63793e-05
-1.80233e-05
-2.30209e-05
2.48885e-05
2.10706e-05
-2.29382e-05
-2.71434e-05
1.59386e-05
3.07008e-05
-3.14795e-05
-1.98877e-06
7.28539e-07
2.64788e-06
-2.20459e-06
-1.75557e-07
4.47764e-08
-9.12936e-08
9.86261e-08
-1.44967e-08
5.86236e-09
-2.67981e-08
1.71822e-08
-2.3803e-09
8.6102e-10
-2.84519e-09
1.62043e-09
-2.69037e-10
7.91133e-11
-2.41161e-10
1.39074e-10
-1.80055e-11
6.38145e-12
-1.87548e-11
1.15414e-11
-7.05879e-13
3.78955e-13
-1.02699e-12
6.82717e-13
-1.2514e-14
9.1132e-15
-3.3894e-14
2.36703e-14
-3.54924e-16
9.78848e-17
-6.08178e-16
4.64822e-16
-2.07428e-18
5.56284e-19
-4.58547e-18
3.98712e-18
8.22296e-06
-8.94344e-06
7.20481e-07
-1.48049e-06
2.22792e-06
7.74125e-06
-8.48869e-06
-2.98148e-06
3.7447e-06
7.93249e-06
-8.69571e-06
-4.52015e-06
5.31068e-06
8.26711e-06
-9.05764e-06
-6.11928e-06
6.94916e-06
8.75595e-06
-9.58583e-06
-7.80373e-06
8.68665e-06
9.43778e-06
-1.03207e-05
-9.60202e-06
1.05543e-05
1.03706e-05
-1.13228e-05
-1.15481e-05
1.25888e-05
1.16444e-05
-1.26851e-05
-1.36818e-05
1.48327e-05
1.34064e-05
-1.45572e-05
-1.60466e-05
1.73283e-05
1.59027e-05
-1.71845e-05
-1.86788e-05
2.01009e-05
1.95551e-05
-2.09772e-05
-2.15719e-05
2.30688e-05
2.46149e-05
-2.61118e-05
-2.4732e-05
9.31669e-06
3.13218e-05
-3.07318e-05
-1.14739e-06
2.68553e-07
1.73441e-06
-1.31228e-06
-5.04739e-08
1.06471e-08
-9.20162e-08
7.96034e-08
-3.65805e-09
1.46779e-09
-1.09877e-08
7.18073e-09
-5.66682e-10
2.02945e-10
-9.26032e-10
5.53468e-10
-6.23999e-11
2.12143e-11
-7.35753e-11
4.5689e-11
-4.17534e-12
1.74929e-12
-5.07547e-12
3.44295e-12
-1.52712e-13
8.26703e-14
-2.55958e-13
1.8035e-13
-2.44176e-15
1.99345e-15
-9.06399e-15
6.31326e-15
-1.17841e-16
2.88149e-17
-2.01784e-16
1.49941e-16
-7.17004e-19
2.06754e-19
-1.82636e-18
1.59149e-18
9.65681e-06
-1.03627e-05
7.05857e-07
-1.45093e-06
2.18307e-06
9.2287e-06
-9.96083e-06
-2.92078e-06
3.66694e-06
9.45066e-06
-1.01968e-05
-4.424e-06
5.19427e-06
9.83839e-06
-1.06087e-05
-5.98057e-06
6.78544e-06
1.04035e-05
-1.12084e-05
-7.61183e-06
8.4625e-06
1.11879e-05
-1.20385e-05
-9.34061e-06
1.02493e-05
1.22537e-05
-1.31624e-05
-1.11921e-05
1.21721e-05
1.36957e-05
-1.46757e-05
-1.31921e-05
1.42547e-05
1.56641e-05
-1.67267e-05
-1.53606e-05
1.65089e-05
1.83989e-05
-1.95472e-05
-1.76916e-05
1.89083e-05
2.22926e-05
-2.35094e-05
-2.01112e-05
2.12829e-05
2.74398e-05
-2.86116e-05
-2.18617e-05
5.40318e-06
2.96396e-05
-2.81079e-05
-6.66404e-07
1.19552e-07
9.66869e-07
-7.03199e-07
-1.52619e-08
3.03927e-09
-6.71058e-08
5.58292e-08
-1.01997e-09
3.8144e-10
-4.82614e-09
3.36378e-09
-1.38226e-10
5.01349e-11
-3.2682e-10
2.10238e-10
-1.42015e-11
5.42786e-12
-2.23943e-11
1.50708e-11
-9.01631e-13
4.13222e-13
-1.3326e-12
9.67422e-13
-3.12072e-14
1.82512e-14
-6.36346e-14
4.65017e-14
-1.32531e-15
4.64206e-16
-2.40519e-15
1.67631e-15
-3.12776e-17
7.98291e-18
-5.8538e-17
4.29333e-17
-2.72007e-19
9.19851e-20
-7.23164e-19
6.34026e-19
1.10607e-05
-1.17512e-05
6.90508e-07
-1.41821e-06
2.13329e-06
1.06844e-05
-1.13995e-05
-2.85331e-06
3.58092e-06
1.09337e-05
-1.16613e-05
-4.31783e-06
5.06643e-06
1.13681e-05
-1.21167e-05
-5.8288e-06
6.60737e-06
1.2e-05
-1.27786e-05
-7.40412e-06
8.22144e-06
1.28723e-05
-1.36896e-05
-9.06144e-06
9.92655e-06
1.40487e-05
-1.49138e-05
-1.08186e-05
1.17396e-05
1.5625e-05
-1.65459e-05
-1.26903e-05
1.36708e-05
1.77463e-05
-1.87269e-05
-1.46793e-05
1.57117e-05
2.06339e-05
-2.16664e-05
-1.67537e-05
1.78049e-05
2.46354e-05
-2.56865e-05
-1.87866e-05
1.9675e-05
2.96407e-05
-3.05292e-05
-1.80746e-05
2.96193e-06
2.64377e-05
-2.50359e-05
-4.15103e-07
5.02849e-08
4.86266e-07
-3.08584e-07
-4.29138e-09
8.23917e-10
-4.57963e-08
3.72891e-08
-2.74039e-10
1.00429e-10
-2.39663e-09
1.74608e-09
-3.43594e-11
1.3026e-11
-1.28654e-10
8.81374e-11
-3.24671e-12
1.38325e-12
-7.20769e-12
5.10682e-12
-1.89777e-13
9.64249e-14
-3.6427e-13
2.74067e-13
-5.75926e-15
4.06771e-15
-1.59043e-14
1.16482e-14
-3.58959e-16
1.04597e-16
-6.0146e-16
3.947e-16
-7.97876e-18
2.20027e-18
-1.55931e-17
1.12754e-17
-1.11071e-19
4.89946e-20
-2.85378e-19
2.43679e-19
5.2601e-47
-1.73326e-46
6.34473e-47
-5.56115e-50
8.25976e-51
-7.13794e-51
-1.24203e-52
7.95375e-53
-2.31488e-53
-1.64406e-55
1.36485e-55
-1.75223e-56
-6.95013e-59
5.6077e-59
-2.44298e-60
-2.82653e-62
2.04435e-62
2.23908e-64
-1.322e-65
9.38919e-66
2.58848e-67
-4.85454e-69
3.64755e-69
1.36469e-70
-1.15465e-72
9.54705e-73
4.18385e-74
-1.0271e-76
9.08237e-77
4.89564e-78
-3.5906e-81
3.1013e-81
2.09932e-82
-2.38584e-85
1.98928e-85
1.47607e-86
-1.1788e-89
9.65576e-90
8.42847e-91
-4.53734e-94
3.73934e-94
3.69308e-95
-7.67965e-99
6.53938e-99
7.52212e-100
-3.26465e-104
2.79661e-104
4.00617e-105
-3.29197e-110
2.64338e-110
5.23562e-111
-3.84686e-116
2.798e-116
8.59731e-117
-7.32881e-123
3.93158e-123
2.91929e-123
3.17612e-43
-1.09415e-42
2.56331e-43
-5.88769e-46
1.02407e-46
1.15909e-46
-3.29862e-46
-2.36547e-48
1.03778e-48
2.60513e-49
-1.07404e-48
-5.3842e-51
3.62881e-51
1.86299e-52
-1.19769e-51
-4.25701e-54
3.52303e-54
1.73481e-56
-3.21199e-55
-1.11592e-57
8.67178e-58
-2.79388e-61
5.61197e-59
-5.02885e-61
3.46378e-61
-3.61857e-64
6.10119e-62
-2.30312e-64
1.56703e-64
-2.24692e-67
3.74294e-65
-7.78721e-68
5.56852e-68
-8.82005e-71
1.55464e-68
-1.53498e-71
1.14609e-71
-1.56931e-74
3.52199e-72
-9.85748e-76
7.23069e-76
-6.91233e-79
2.55151e-76
-2.12187e-80
1.4646e-80
-1.20609e-83
6.13844e-81
-7.9047e-85
5.1833e-85
-9.61074e-88
2.50917e-85
-2.97859e-89
1.88114e-89
-3.59532e-92
1.04101e-89
-6.76956e-94
4.11715e-94
-5.83876e-97
2.64093e-94
-4.9136e-99
2.77619e-99
-2.09124e-102
2.19334e-99
-6.36186e-105
3.15677e-105
-2.37489e-108
3.33452e-105
-1.86418e-111
7.28302e-112
-4.17503e-114
1.18751e-111
-4.8893e-118
1.03717e-118
-1.48845e-120
4.01894e-118
7.2422e-40
-1.95634e-39
3.31957e-40
-1.09528e-42
1.55272e-43
2.93984e-43
-9.25886e-43
-4.69879e-45
1.51222e-45
6.47095e-46
-3.01382e-45
-1.24965e-47
6.03149e-48
4.8573e-49
-3.79653e-48
-1.7214e-50
1.16607e-50
8.31347e-53
-1.49814e-51
-9.08628e-54
7.11221e-54
-7.77885e-57
7.14103e-55
-2.24326e-57
1.54458e-57
-5.95328e-60
4.66198e-58
-8.82945e-61
5.59492e-61
-3.53468e-63
2.3267e-61
-3.25104e-64
2.01014e-64
-1.4927e-66
9.85505e-65
-8.53871e-68
5.33423e-68
-3.9384e-70
2.83475e-68
-1.1988e-71
7.46767e-72
-4.33001e-74
4.35669e-72
-6.33661e-76
3.81872e-76
-1.21486e-78
2.5173e-76
-1.2317e-80
6.77525e-81
-4.29005e-83
5.41061e-81
-4.3508e-85
2.24923e-85
-1.76203e-87
2.07111e-85
-1.14423e-89
5.57001e-90
-5.1226e-92
5.92874e-90
-1.50995e-94
6.77601e-95
-5.92798e-97
8.62887e-95
-5.28873e-100
2.04777e-100
-1.48843e-102
3.41368e-100
-2.73302e-106
8.00428e-107
-6.38382e-109
2.03918e-106
-5.13562e-113
7.3128e-114
-1.62172e-115
4.58446e-113
6.64536e-37
-1.59056e-36
2.20214e-37
-9.51978e-40
1.45253e-40
4.10297e-40
-1.01299e-39
-3.78676e-42
1.30554e-42
7.73299e-43
-3.04115e-42
-9.34808e-45
3.93468e-45
4.24575e-46
-3.46178e-45
-1.49566e-47
7.67291e-48
7.31257e-50
-1.26568e-48
-1.55028e-50
1.02495e-50
-4.18334e-53
1.63944e-51
-7.12423e-54
4.92344e-54
-3.29911e-56
1.87225e-54
-1.55206e-57
9.02794e-58
-1.183e-59
5.32749e-58
-5.05545e-61
2.78589e-61
-4.82261e-63
1.93742e-61
-1.34864e-64
7.11802e-65
-1.38419e-66
5.59252e-65
-2.89173e-68
1.52249e-68
-2.54334e-70
1.2797e-68
-3.56971e-72
1.89844e-72
-1.87739e-74
1.6779e-72
-1.19614e-76
5.89246e-77
-6.13807e-79
6.18359e-77
-2.43393e-81
1.09707e-81
-1.86477e-83
1.36678e-81
-5.27306e-86
2.17309e-86
-4.87407e-88
3.19471e-86
-8.0748e-91
3.00875e-91
-8.04513e-93
5.29761e-91
-5.85176e-96
1.87743e-96
-4.56612e-98
4.21479e-96
-8.31507e-102
1.99336e-102
-5.86427e-104
6.73523e-102
-1.82536e-108
2.00159e-109
-8.71752e-111
1.70581e-108
2.88008e-34
-6.60959e-34
7.97009e-35
-4.54102e-37
7.5422e-38
2.51552e-37
-5.54349e-37
-1.69336e-39
6.63432e-40
4.44103e-40
-1.54604e-39
-3.81363e-42
1.75403e-42
2.21369e-43
-1.5725e-42
-5.611e-45
2.513e-45
2.99265e-47
-3.82281e-46
-7.28829e-48
3.72901e-48
-4.75546e-50
1.09013e-48
-6.6629e-51
4.2082e-51
-7.38279e-53
2.03996e-51
-2.30025e-54
1.33135e-54
-2.30664e-56
9.10805e-55
-4.05107e-58
2.05643e-58
-6.27391e-60
1.83334e-58
-9.52352e-62
4.41469e-62
-1.65732e-63
4.60072e-62
-2.32208e-65
1.03229e-65
-3.81496e-67
1.1847e-65
-4.57656e-69
2.09045e-69
-5.74473e-71
2.4457e-69
-3.86315e-73
1.73147e-73
-4.5842e-75
2.2092e-73
-9.22285e-78
3.76733e-78
-9.14641e-80
5.71821e-78
-1.24974e-82
4.59003e-83
-1.76424e-84
8.37196e-83
-1.51926e-87
4.83824e-88
-2.67979e-89
1.0965e-87
-1.53484e-92
4.18442e-93
-2.71242e-94
1.20027e-92
-4.97916e-98
9.98799e-99
-8.30126e-100
4.28541e-98
-2.81817e-104
2.48878e-105
-2.61739e-106
2.71762e-104
7.07112e-32
-1.57498e-31
1.72513e-32
-1.24438e-34
2.20056e-35
7.37147e-35
-1.58173e-34
-4.25035e-37
1.78686e-37
1.15615e-37
-4.05686e-37
-9.12113e-40
4.51514e-40
5.81331e-41
-3.74452e-40
-1.26546e-42
5.91059e-43
4.98197e-45
-3.32961e-44
-1.57244e-45
6.69142e-46
-2.0816e-47
3.441e-46
-1.89976e-48
9.70104e-49
-4.16874e-50
6.78867e-49
-1.39389e-51
7.69502e-52
-2.75477e-53
6.10809e-52
-2.54347e-55
1.2575e-55
-4.86279e-57
1.28568e-55
-3.51399e-59
1.50946e-59
-9.53141e-61
1.89387e-59
-8.39082e-63
3.38379e-63
-2.2638e-64
4.75384e-63
-1.73205e-66
6.75393e-67
-5.22603e-68
1.04186e-66
-2.39255e-70
9.37339e-71
-6.95067e-72
1.50846e-70
-1.51916e-74
5.7531e-75
-2.89386e-76
1.01431e-74
-1.95811e-79
6.57995e-80
-3.53924e-81
1.41707e-79
-1.36455e-84
3.94536e-85
-3.7195e-86
1.0591e-84
-1.21416e-89
2.83837e-90
-3.61875e-91
1.01971e-89
-6.21663e-95
1.0634e-95
-1.85971e-96
5.67248e-95
-7.26202e-101
5.42884e-102
-1.87293e-102
7.39935e-101
1.10068e-29
-2.34822e-29
2.53586e-30
-2.01807e-32
3.88582e-33
1.13917e-32
-2.47426e-32
-5.90872e-35
2.62057e-35
1.47846e-35
-5.57236e-35
-1.2157e-37
6.17319e-38
7.58147e-39
-4.42796e-38
-1.71234e-40
8.38413e-41
-8.34813e-44
7.02193e-42
-2.06646e-43
8.79207e-44
-4.9455e-45
6.20803e-44
-2.37831e-46
9.61769e-47
-9.0043e-48
1.02871e-46
-2.56428e-49
1.26171e-49
-9.93577e-51
1.27015e-49
-9.37197e-53
4.52959e-53
-2.89563e-54
5.13712e-53
-7.14494e-57
2.88904e-57
-2.81967e-58
4.25075e-57
-1.66572e-60
6.33657e-61
-6.45336e-62
1.04581e-60
-3.18065e-64
1.12952e-64
-1.62338e-65
2.15814e-64
-4.83086e-68
1.68007e-68
-2.48205e-69
3.46774e-68
-4.46726e-72
1.52782e-72
-2.07322e-73
3.42418e-72
-1.34091e-76
4.19583e-77
-4.9529e-78
1.08001e-76
-5.42719e-82
1.4392e-82
-2.3491e-83
4.76797e-82
-4.4765e-87
9.6798e-88
-2.02261e-88
4.32154e-87
-1.76461e-92
2.68893e-93
-1.13047e-93
1.9669e-92
-2.47675e-98
1.56814e-99
-1.66318e-99
3.24673e-98
-1.1616e-26
1.53997e-27
1.0258e-27
-3.58035e-30
4.26323e-31
9.46384e-31
-3.81307e-30
-3.69963e-33
1.82314e-33
8.92438e-34
-4.0058e-33
-7.58772e-36
3.91337e-36
4.67121e-37
-2.38896e-36
-1.12786e-38
5.62262e-39
-1.2779e-40
1.41207e-39
-1.35776e-41
6.1457e-42
-6.31953e-43
5.01345e-42
-1.46082e-44
5.50036e-45
-9.64036e-46
7.13779e-45
-1.52934e-47
6.52672e-48
-1.20689e-48
8.41103e-48
-8.29822e-51
4.02181e-51
-6.06955e-52
4.74931e-51
-7.54292e-55
2.95128e-55
-4.2936e-56
4.64846e-55
-1.60642e-58
5.72192e-59
-9.47416e-60
1.05901e-58
-2.68136e-62
8.80564e-63
-2.32517e-63
1.91615e-62
-3.97424e-66
1.20515e-66
-3.69604e-67
3.01615e-66
-4.31121e-70
1.2951e-70
-4.10192e-71
3.44125e-70
-1.77419e-74
5.12161e-75
-1.5486e-75
1.47133e-74
-1.061e-79
2.43306e-80
-6.87801e-81
9.44745e-80
-7.87225e-85
1.40458e-85
-5.31367e-86
7.70285e-85
-2.79863e-90
3.3162e-91
-2.82486e-91
3.10919e-90
-4.77784e-96
2.21985e-97
-5.10214e-97
6.17182e-96
1.3192e-05
-1.45903e-05
1.39829e-06
-2.92099e-06
4.39146e-06
1.21056e-05
-1.35761e-05
-5.87144e-06
7.36535e-06
1.23794e-05
-1.38733e-05
-8.87681e-06
1.04091e-05
1.28548e-05
-1.43871e-05
-1.1966e-05
1.35507e-05
1.35445e-05
-1.51291e-05
-1.51668e-05
1.68174e-05
1.44914e-05
-1.6142e-05
-1.85056e-05
2.02335e-05
1.57591e-05
-1.7487e-05
-2.2003e-05
2.3814e-05
1.74409e-05
-1.92518e-05
-2.56651e-05
2.75521e-05
1.96727e-05
-2.15596e-05
-2.94671e-05
3.13925e-05
2.26521e-05
-2.45775e-05
-3.33225e-05
3.51696e-05
2.66828e-05
-2.85299e-05
-3.7023e-05
3.8765e-05
3.12688e-05
-3.30109e-05
-3.11692e-05
2.77217e-06
2.3566e-05
-1.88826e-05
-4.51412e-07
2.76018e-08
1.6994e-07
1.56201e-08
8.59279e-11
-9.7241e-11
-3.00041e-08
1.84691e-08
-2.59341e-11
2.29765e-11
-1.26626e-09
6.7479e-10
-8.66536e-12
4.14882e-12
-5.46817e-11
2.65363e-11
-8.16212e-13
4.73647e-13
-2.41012e-12
1.14966e-12
-4.43137e-14
3.45677e-14
-9.78579e-14
4.74576e-14
-3.1285e-15
1.32604e-15
-4.00173e-15
1.57824e-15
-1.10679e-16
3.14706e-17
-1.39349e-16
4.25683e-17
-3.01104e-18
9.5605e-19
-3.87303e-18
1.40892e-18
-7.84453e-20
4.47448e-20
-9.72642e-20
4.76503e-20
1.59435e-05
-1.72488e-05
1.30525e-06
-2.73262e-06
4.10556e-06
1.49993e-05
-1.63723e-05
-5.4852e-06
6.87379e-06
1.5316e-05
-1.67046e-05
-8.2735e-06
9.68611e-06
1.58609e-05
-1.72735e-05
-1.11136e-05
1.25573e-05
1.66443e-05
-1.8088e-05
-1.40183e-05
1.54973e-05
1.77072e-05
-1.91861e-05
-1.69941e-05
1.85076e-05
1.9107e-05
-2.06205e-05
-2.00356e-05
2.15739e-05
2.09235e-05
-2.24617e-05
-2.31161e-05
2.46529e-05
2.32647e-05
-2.48015e-05
-2.61716e-05
2.76533e-05
2.62678e-05
-2.77495e-05
-2.90737e-05
3.04004e-05
3.01021e-05
-3.14288e-05
-3.15868e-05
3.26189e-05
3.43423e-05
-3.53744e-05
-2.02722e-05
9.99762e-07
1.50385e-05
-1.19859e-05
-1.1616e-07
-2.43082e-09
-8.91116e-08
1.12214e-07
1.31669e-09
-2.17691e-10
-1.10623e-08
6.15731e-09
2.78157e-11
-1.42745e-12
-3.81501e-10
1.92599e-10
-4.9963e-13
4.71142e-13
-1.36875e-11
6.7235e-12
-9.64316e-14
6.0837e-14
-4.81254e-13
2.42877e-13
-6.51379e-15
5.11029e-15
-1.47284e-14
8.38237e-15
-4.94163e-16
2.20413e-16
-4.37065e-16
2.52653e-16
-1.039e-17
3.71546e-18
-1.00705e-17
4.67352e-18
-3.42158e-19
1.36244e-19
-3.05645e-19
1.40561e-19
-1.18386e-20
6.0195e-21
-9.96837e-21
4.2596e-21
1.85046e-05
-1.97091e-05
1.2045e-06
-2.52591e-06
3.79216e-06
1.76927e-05
-1.8959e-05
-5.06238e-06
6.33711e-06
1.8037e-05
-1.93117e-05
-7.61721e-06
8.90324e-06
1.86233e-05
-1.99093e-05
-1.01956e-05
1.14942e-05
1.9459e-05
-2.07576e-05
-1.27983e-05
1.41068e-05
2.05791e-05
-2.18876e-05
-1.54175e-05
1.67273e-05
2.20302e-05
-2.334e-05
-1.80317e-05
1.93245e-05
2.38733e-05
-2.51662e-05
-2.05975e-05
2.18401e-05
2.61842e-05
-2.74268e-05
-2.30388e-05
2.41759e-05
2.90465e-05
-3.01836e-05
-2.52295e-05
2.61738e-05
3.25456e-05
-3.349e-05
-2.69712e-05
2.76285e-05
3.61916e-05
-3.68489e-05
-1.30064e-05
5.6831e-07
9.53856e-06
-7.53222e-06
-1.16499e-08
-2.88927e-09
-1.04069e-07
8.19464e-08
5.1223e-10
-7.66339e-11
-3.43196e-09
1.91243e-09
1.13121e-11
-1.48185e-12
-9.40198e-11
4.59714e-11
1.63935e-13
2.69251e-14
-2.93304e-12
1.32818e-12
-1.1213e-14
9.3542e-15
-8.84761e-14
4.14128e-14
-2.2324e-15
7.89575e-16
-2.74636e-15
1.50219e-15
-6.76949e-17
3.1147e-17
-6.50892e-17
3.66097e-17
-1.11595e-18
3.73269e-19
-1.16224e-18
5.15249e-19
-3.46322e-20
1.25297e-20
-3.00739e-20
1.31068e-20
-1.03142e-21
4.77748e-22
-7.67544e-22
3.22285e-22
2.08619e-05
-2.19617e-05
1.09984e-06
-2.30912e-06
3.46423e-06
2.017e-05
-2.13251e-05
-4.62087e-06
5.77831e-06
2.05279e-05
-2.16854e-05
-6.93633e-06
8.09461e-06
2.11313e-05
-2.22896e-05
-9.25231e-06
1.04084e-05
2.19841e-05
-2.31402e-05
-1.15609e-05
1.27076e-05
2.31137e-05
-2.42604e-05
-1.38453e-05
1.49698e-05
2.45545e-05
-2.56791e-05
-1.60759e-05
1.71569e-05
2.63487e-05
-2.74297e-05
-1.82044e-05
1.92086e-05
2.85437e-05
-2.95479e-05
-2.01577e-05
2.1037e-05
3.11817e-05
-3.2061e-05
-2.18295e-05
2.2517e-05
3.42932e-05
-3.49807e-05
-2.30746e-05
2.3522e-05
3.73901e-05
-3.78374e-05
-8.05249e-06
2.693e-07
5.89606e-06
-4.57929e-06
6.22772e-09
-1.52071e-09
-5.97297e-08
4.21243e-08
2.03869e-10
-2.70587e-11
-1.06666e-09
6.01446e-10
3.6654e-12
-4.70642e-13
-2.22885e-11
1.09855e-11
5.03993e-14
4.09465e-15
-5.56094e-13
2.46547e-13
-1.91579e-15
2.08213e-15
-1.47359e-14
7.03406e-15
-3.93927e-16
1.12066e-16
-4.37971e-16
2.10117e-16
-7.62513e-18
3.42223e-18
-8.12305e-18
4.41176e-18
-1.16345e-19
3.50277e-20
-1.32285e-19
5.44773e-20
-3.23779e-21
1.03856e-21
-2.95978e-21
1.21064e-21
-7.9012e-23
3.29418e-23
-6.14218e-23
2.54056e-23
2.30091e-05
-2.40036e-05
9.94562e-07
-2.08989e-06
3.13323e-06
2.24244e-05
-2.34677e-05
-4.17621e-06
5.21692e-06
2.27842e-05
-2.3825e-05
-6.25476e-06
7.28836e-06
2.3385e-05
-2.44186e-05
-8.3165e-06
9.33712e-06
2.42274e-05
-2.5248e-05
-1.0348e-05
1.13459e-05
2.53311e-05
-2.63291e-05
-1.23277e-05
1.32887e-05
2.67191e-05
-2.76801e-05
-1.42237e-05
1.51264e-05
2.84176e-05
-2.93202e-05
-1.59895e-05
1.68043e-05
3.04521e-05
-3.12669e-05
-1.75615e-05
1.82498e-05
3.28372e-05
-3.35255e-05
-1.88567e-05
1.93695e-05
3.55729e-05
-3.60857e-05
-1.97722e-05
2.00886e-05
3.82145e-05
-3.85308e-05
-4.703e-06
7.98501e-08
3.52414e-06
-2.66739e-06
4.36753e-09
-5.79128e-10
-2.9542e-08
2.11195e-08
6.84169e-11
-8.45772e-12
-3.50269e-10
2.13149e-10
1.07207e-12
-1.25066e-13
-5.49965e-12
2.87811e-12
1.0003e-14
1.84738e-15
-1.05178e-13
4.88479e-14
-1.44802e-15
3.7048e-16
-2.72619e-15
1.27317e-15
-4.59801e-17
1.31141e-17
-5.55205e-17
2.71475e-17
-7.40513e-19
3.14115e-19
-8.7382e-19
4.65118e-19
-1.0664e-20
2.88249e-21
-1.33514e-20
5.1527e-21
-2.6318e-22
7.60467e-23
-2.64617e-22
1.0169e-22
-5.38476e-24
2.05441e-24
-4.68928e-24
1.87082e-24
2.49462e-05
-2.58372e-05
8.91046e-07
-1.87371e-06
2.80765e-06
2.44558e-05
-2.53898e-05
-3.73951e-06
4.66718e-06
2.48085e-05
-2.57362e-05
-5.58929e-06
6.50431e-06
2.53921e-05
-2.63071e-05
-7.41033e-06
8.30523e-06
2.62043e-05
-2.70992e-05
-9.18621e-06
1.00503e-05
2.72582e-05
-2.81222e-05
-1.08938e-05
1.17128e-05
2.85673e-05
-2.93863e-05
-1.25022e-05
1.32566e-05
3.01453e-05
-3.08998e-05
-1.39698e-05
1.46349e-05
3.20026e-05
-3.26677e-05
-1.52446e-05
1.57905e-05
3.41369e-05
-3.46828e-05
-1.62635e-05
1.66551e-05
3.65327e-05
-3.69243e-05
-1.69551e-05
1.7189e-05
3.8802e-05
-3.9036e-05
-2.53548e-06
4.61683e-09
1.99643e-06
-1.48193e-06
2.29474e-09
-2.42125e-10
-1.53842e-08
1.10577e-08
2.60005e-11
-2.90447e-12
-1.35337e-10
8.62184e-11
3.29292e-13
-3.20402e-14
-1.55385e-12
8.63059e-13
1.75476e-15
9.65073e-16
-2.25226e-14
1.09056e-14
-2.98482e-16
4.99982e-17
-4.56226e-16
2.1057e-16
-5.16496e-18
1.41504e-18
-6.77388e-18
3.46405e-18
-6.83354e-20
2.74682e-20
-8.88768e-20
4.76692e-20
-8.65662e-22
2.1047e-22
-1.20022e-21
4.47307e-22
-1.87399e-23
4.8151e-24
-2.09148e-23
7.72729e-24
-3.25685e-25
1.13112e-25
-3.22449e-25
1.24929e-25
2.66779e-05
-2.7469e-05
7.91117e-07
-1.66535e-06
2.49414e-06
2.62705e-05
-2.70993e-05
-3.31992e-06
4.14017e-06
2.66094e-05
-2.74296e-05
-4.95326e-06
5.75739e-06
2.71657e-05
-2.79698e-05
-6.55054e-06
7.33042e-06
2.79351e-05
-2.8715e-05
-8.09429e-06
8.83919e-06
2.8925e-05
-2.96699e-05
-9.56176e-06
1.02583e-05
3.01417e-05
-3.08383e-05
-1.09246e-05
1.1556e-05
3.15899e-05
-3.22213e-05
-1.21475e-05
1.26937e-05
3.32702e-05
-3.38163e-05
-1.3189e-05
1.36273e-05
3.51707e-05
-3.5609e-05
-1.40019e-05
1.4307e-05
3.72695e-05
-3.75746e-05
-1.45363e-05
1.47143e-05
3.92377e-05
-3.94158e-05
-1.18571e-06
-1.03081e-08
1.08411e-06
-7.62404e-07
1.76367e-09
-1.53388e-10
-7.72936e-09
5.19808e-09
1.39694e-11
-1.30931e-12
-5.37363e-11
3.20917e-11
1.23021e-13
-9.60336e-15
-4.7228e-13
2.55411e-13
5.52015e-16
3.16842e-16
-5.1442e-15
2.67156e-15
-5.70682e-17
6.77929e-18
-8.02959e-17
3.81089e-17
-6.28959e-19
1.57377e-19
-9.00775e-19
4.74691e-19
-6.55688e-21
2.53013e-21
-9.34233e-21
5.14391e-21
-6.65154e-23
1.45639e-23
-1.03395e-22
3.7875e-23
-1.2426e-24
2.70512e-25
-1.54066e-24
5.55247e-25
-1.8107e-26
5.64348e-27
-2.04338e-26
7.75104e-27
2.82123e-05
-2.89088e-05
6.96543e-07
-1.46755e-06
2.19698e-06
2.78775e-05
-2.8607e-05
-2.92289e-06
3.64243e-06
2.81986e-05
-2.89181e-05
-4.35411e-06
5.05582e-06
2.87217e-05
-2.94234e-05
-5.74568e-06
6.42127e-06
2.94413e-05
-3.01169e-05
-7.08019e-06
7.71956e-06
3.03604e-05
-3.09997e-05
-8.33655e-06
8.92786e-06
3.14801e-05
-3.20714e-05
-9.48991e-06
1.00188e-05
3.27993e-05
-3.33282e-05
-1.05106e-05
1.09612e-05
3.43123e-05
-3.47628e-05
-1.13665e-05
1.17219e-05
3.60026e-05
-3.6358e-05
-1.20224e-05
1.22639e-05
3.78462e-05
-3.80878e-05
-1.24431e-05
1.25832e-05
3.95711e-05
-3.97112e-05
-5.25203e-07
-4.80153e-09
5.39908e-07
-3.74851e-07
7.29711e-10
-6.22372e-11
-3.51632e-09
2.53276e-09
5.41706e-12
-4.71037e-13
-1.89297e-11
1.14182e-11
3.92229e-14
-2.41308e-15
-1.34335e-13
7.09437e-14
-3.18243e-16
8.51431e-17
-1.38657e-15
6.93502e-16
-8.76653e-18
9.64539e-19
-1.48561e-17
6.85669e-18
-7.995e-20
1.82362e-20
-1.28967e-19
6.70619e-20
-6.43578e-22
2.33352e-22
-1.02817e-21
5.68797e-22
-5.18568e-24
9.92177e-25
-9.15421e-24
3.26798e-24
-8.09165e-26
1.3986e-26
-1.12668e-25
3.93337e-26
-9.69446e-28
2.68338e-28
-1.25341e-27
4.66291e-28
2.95602e-05
-3.01679e-05
6.07653e-07
-1.28196e-06
1.91854e-06
2.92891e-05
-2.99257e-05
-2.55115e-06
3.17735e-06
2.95901e-05
-3.02163e-05
-3.79531e-06
4.40329e-06
3.00771e-05
-3.06851e-05
-4.99912e-06
5.58087e-06
3.07442e-05
-3.13259e-05
-6.14598e-06
6.69219e-06
3.15911e-05
-3.21373e-05
-7.21681e-06
7.7172e-06
3.26155e-05
-3.31159e-05
-8.19036e-06
8.63314e-06
3.38123e-05
-3.42551e-05
-9.04249e-06
9.41512e-06
3.51727e-05
-3.55453e-05
-9.74816e-06
1.0038e-05
3.66781e-05
-3.6968e-05
-1.02811e-05
1.04745e-05
3.83043e-05
-3.84976e-05
-1.06159e-05
1.07263e-05
3.98316e-05
-3.9942e-05
-1.68199e-07
-3.85102e-09
2.5874e-07
-1.68313e-07
4.05465e-10
-2.85237e-11
-1.89356e-09
1.37295e-09
2.11427e-12
-1.58189e-13
-7.10438e-12
4.26862e-12
1.12349e-14
-7.35015e-16
-3.73419e-14
1.96399e-14
-1.0483e-16
1.75069e-17
-3.2029e-16
1.54e-16
-1.28763e-18
1.30173e-19
-2.56846e-18
1.132e-18
-9.44453e-21
1.9592e-21
-1.75996e-20
8.85326e-21
-5.88709e-23
1.86558e-23
-1.09684e-22
5.88449e-23
-4.08436e-25
6.73298e-26
-8.3248e-25
2.79975e-25
-5.20453e-27
7.55498e-28
-8.30069e-27
2.74542e-27
-5.11903e-29
1.22365e-29
-7.60394e-29
2.74756e-29
3.07335e-05
-3.12583e-05
5.24786e-07
-1.1094e-06
1.65973e-06
3.05184e-05
-3.10687e-05
-2.20625e-06
2.74629e-06
3.07985e-05
-3.13385e-05
-3.27838e-06
3.80057e-06
3.12492e-05
-3.17714e-05
-4.31121e-06
4.80814e-06
3.18642e-05
-3.23611e-05
-5.28961e-06
5.75316e-06
3.26411e-05
-3.31047e-05
-6.19686e-06
6.61827e-06
3.35754e-05
-3.39968e-05
-7.01497e-06
7.38447e-06
3.466e-05
-3.50295e-05
-7.72448e-06
8.03247e-06
3.58844e-05
-3.61924e-05
-8.30632e-06
8.5435e-06
3.72296e-05
-3.74667e-05
-8.74117e-06
8.89744e-06
3.8672e-05
-3.88283e-05
-9.01142e-06
9.10272e-06
4.00385e-05
-4.01298e-05
-7.43321e-08
-5.22144e-09
1.08995e-07
-4.77823e-08
3.29359e-10
-1.68547e-11
-8.65048e-10
5.14125e-10
9.68861e-13
-5.89434e-14
-2.3564e-12
1.19593e-12
3.28278e-15
7.75466e-17
-9.5922e-15
4.37909e-15
-2.81254e-17
2.29274e-18
-6.89092e-17
3.07155e-17
-1.72535e-19
1.56886e-20
-4.05038e-19
1.70948e-19
-9.92829e-22
1.77662e-22
-2.1679e-21
1.04237e-21
-5.00052e-24
1.22747e-24
-1.1029e-23
5.40509e-24
-2.99876e-26
4.32754e-27
-7.20756e-26
2.23869e-26
-3.11799e-28
3.88649e-29
-5.84492e-28
1.80387e-28
-2.48777e-30
5.45071e-31
-4.32765e-30
1.53206e-30
3.17442e-05
-3.21924e-05
4.4814e-07
-9.49739e-07
1.42058e-06
3.15786e-05
-3.20494e-05
-1.8875e-06
2.34848e-06
3.18383e-05
-3.22992e-05
-2.80183e-06
3.24606e-06
3.22537e-05
-3.2698e-05
-3.67929e-06
4.10011e-06
3.28189e-05
-3.32398e-05
-4.50637e-06
4.89654e-06
3.35304e-05
-3.39205e-05
-5.26842e-06
5.62055e-06
3.43823e-05
-3.47344e-05
-5.95061e-06
6.25695e-06
3.53665e-05
-3.56729e-05
-6.53751e-06
6.79071e-06
3.64721e-05
-3.67253e-05
-7.01483e-06
7.20829e-06
3.76805e-05
-3.78739e-05
-7.36872e-06
7.49504e-06
3.89695e-05
-3.90958e-05
-7.58715e-06
7.66335e-06
4.02084e-05
-4.02846e-05
-5.81894e-08
-2.30208e-09
-2.50007e-08
8.25161e-08
1.01566e-10
-4.6486e-12
-2.85903e-10
1.87296e-10
2.53289e-13
-1.40696e-14
-5.87849e-13
3.05324e-13
6.8414e-16
3.35492e-17
-1.84686e-15
8.28797e-16
-5.44377e-18
2.99602e-19
-1.2416e-17
5.12307e-18
-1.99891e-20
1.61086e-21
-5.64201e-20
2.22346e-20
-8.91283e-23
1.29557e-23
-2.35752e-22
1.05494e-22
-3.63452e-25
5.93723e-26
-9.78111e-25
4.23325e-25
-1.92801e-27
2.51364e-28
-5.53472e-27
1.57828e-27
-1.61065e-29
1.78735e-30
-3.63179e-29
1.05968e-29
-1.02444e-31
2.19097e-32
-2.13765e-31
7.58112e-32
3.26045e-05
-3.29816e-05
3.77134e-07
-8.02352e-07
1.19984e-06
3.24829e-05
-3.28804e-05
-1.59375e-06
1.98213e-06
3.27231e-05
-3.31115e-05
-2.36354e-06
2.73658e-06
3.31057e-05
-3.34788e-05
-3.09968e-06
3.45136e-06
3.36251e-05
-3.39768e-05
-3.79003e-06
4.11417e-06
3.42769e-05
-3.4601e-05
-4.42221e-06
4.71265e-06
3.50548e-05
-3.53452e-05
-4.98404e-06
5.23457e-06
3.59506e-05
-3.62012e-05
-5.46328e-06
5.66858e-06
3.69539e-05
-3.71593e-05
-5.84983e-06
6.00549e-06
3.80472e-05
-3.82029e-05
-6.13428e-06
6.23533e-06
3.92095e-05
-3.93106e-05
-6.30923e-06
6.37265e-06
4.03484e-05
-4.04118e-05
-1.60439e-08
-2.19361e-10
-1.18639e-07
1.33941e-07
2.02223e-11
-1.07712e-12
-1.27869e-10
1.11975e-10
5.78973e-14
-2.9295e-15