/*--------------------------------*- C++ -*----------------------------------*\
| =========                 |                                                 |
| \\      /  F ield         | OpenFOAM: The Open Source CFD Toolbox           |
|  \\    /   O peration     | Version:  v1912                                 |
|   \\  /    A nd           | Website:  www.openfoam.com                      |
|    \\/     M anipulation  |                                                 |
\*---------------------------------------------------------------------------*/
FoamFile
{
    version     2.0;
    format      ascii;
    class       volScalarField;
    location    "0.05";
    object      alpha.water;
}
// * * * * * * * * * * * * * * * * * * * * * * * * * * * * * * * * * * * * * //

dimensions      [0 0 0 0 0 0 0];


internalField   nonuniform List<scalar> 
9072
(
1
1
1
1
1
1
1
1
1
1
1
1
0.996592
0.940299
0.241773
0.0203168
0.00253156
0.000198199
9.55063e-06
2.8196e-07
3.5895e-09
1.31622e-11
2.86437e-14
1
1
1
1
1
1
1
1
1
1
1
1
0.988823
0.643417
0.0588804
0.0237818
0.00476774
0.000306667
1.79313e-05
6.37716e-07
9.46796e-09
5.48632e-11
1.74953e-13
1
1
1
1
1
1
1
1
1
1
1
1
0.985551
0.224029
0.0206538
0.00513894
0.00091574
9.3066e-05
5.76338e-06
2.08132e-07
3.28707e-09
2.41755e-11
1.87188e-13
1
1
1
1
1
1
1
1
1
1
1
1
0.96338
0.0544952
0.00825821
0.00151168
0.000237521
2.40291e-05
1.51288e-06
5.32575e-08
9.43865e-10
8.35534e-12
9.45616e-14
1
1
1
1
1
1
1
1
1
1
1
1
0.886743
0.0263429
0.00334256
0.000453478
6.05346e-05
5.80404e-06
3.50074e-07
1.21415e-08
2.48123e-10
7.07313e-12
3.67601e-14
1
1
1
1
1
1
1
1
1
1
1
1
0.795495
0.0146055
0.00137444
0.000143407
1.57256e-05
1.34263e-06
7.48011e-08
2.62609e-09
6.03604e-11
2.47156e-12
1.29474e-14
1
1
1
1
1
1
1
1
1
1
1
1
0.687092
0.00893299
0.000619187
4.94639e-05
4.29453e-06
3.09278e-07
1.56317e-08
5.50771e-10
2.85524e-11
6.81792e-13
4.67732e-15
1
1
1
1
1
1
1
1
1
1
1
1
0.585642
0.00591363
0.000322036
1.95984e-05
1.30289e-06
7.60847e-08
3.3521e-09
1.13716e-10
8.19053e-12
1.76984e-13
1.80339e-15
8.83202e-43
8.4029e-46
1.04564e-48
7.00682e-52
2.44689e-55
1.17146e-58
5.50721e-62
1.65077e-65
2.43795e-69
1.07784e-73
4.30723e-78
3.83899e-82
1.98791e-86
6.6095e-91
5.98388e-96
1.03964e-101
1.92766e-107
2.91601e-113
7.36989e-120
8.041e-39
1.08181e-41
3.30293e-44
4.26654e-47
1.60045e-50
2.97428e-54
1.47794e-57
5.61359e-61
1.03758e-64
5.89916e-69
1.26734e-73
6.88138e-78
3.42018e-82
9.25645e-87
2.67046e-92
-8.30173e-97
-1.95892e-102
-7.31693e-109
-2.34258e-115
1.39443e-35
2.42891e-38
8.57379e-41
1.5082e-43
1.0747e-46
1.95462e-50
3.67616e-54
1.45436e-57
4.16834e-61
6.30748e-65
3.19113e-69
1.96383e-74
2.68403e-78
7.41142e-83
-8.13129e-89
-3.7944e-92
-2.4333e-97
-1.54496e-103
-2.52744e-110
1.09436e-32
2.17942e-35
7.33877e-38
1.30489e-40
1.30787e-43
5.6367e-47
5.57431e-51
1.97911e-54
5.86553e-58
1.4096e-61
1.77278e-65
1.87304e-70
-8.21036e-75
-1.7367e-79
-7.09385e-84
-2.33016e-88
-3.00356e-93
-5.47155e-99
-1.10872e-105
4.55535e-30
1.05444e-32
3.29621e-35
5.27013e-38
5.32784e-41
3.88159e-44
7.53322e-48
1.25157e-51
3.45476e-55
1.03895e-58
2.20853e-62
1.50899e-66
-4.88399e-71
-2.64012e-75
-4.44434e-80
-5.28396e-85
-8.7493e-90
-3.42336e-95
-1.88366e-101
1.08262e-27
2.89507e-30
8.30032e-33
1.20108e-35
1.08579e-38
8.95159e-42
4.50999e-45
6.34235e-49
7.54464e-53
3.1757e-56
7.39416e-60
1.03409e-63
2.5069e-68
-6.40201e-72
-1.25776e-76
-8.00153e-82
-8.20358e-87
-5.13864e-92
-7.60119e-98
1.54983e-25
4.59839e-28
1.1434e-30
1.49338e-33
1.24365e-36
9.51228e-40
7.3706e-43
2.03183e-46
-7.97838e-52
4.42669e-54
7.82983e-58
8.53022e-62
-1.05995e-65
-4.2771e-69
-1.68318e-73
-8.40482e-79
-9.41646e-84
-5.52162e-89
-1.17264e-94
1.40838e-22
9.35034e-26
7.73833e-29
8.6647e-32
6.7601e-35
4.71331e-38
4.52805e-41
2.40975e-44
2.06737e-48
5.74396e-52
1.07872e-55
1.80664e-59
1.88942e-63
-2.30429e-68
-8.39557e-72
-8.9858e-77
-1.08514e-81
-5.54592e-87
-1.70512e-92
1
1
1
1
1
1
1
1
1
1
1
1
0.456106
0.00352973
0.000150211
6.87065e-06
3.34008e-07
1.4748e-08
5.1803e-10
3.65323e-11
1.47183e-12
3.72229e-14
6.81507e-16
1
1
1
1
1
1
1
1
1
1
1
1
0.275457
0.00138992
4.95472e-05
1.90701e-06
7.38909e-08
2.60311e-09
7.38044e-11
3.92713e-12
1.02444e-13
3.08215e-15
9.47279e-17
1
1
1
1
1
1
1
1
1
1
1
1
0.163512
0.000518542
1.38163e-05
4.4282e-07
1.49175e-08
4.64066e-10
2.42664e-11
5.61825e-13
1.19779e-14
3.27465e-16
8.26559e-18
1
1
1
1
1
1
1
1
1
1
1
1
0.0929124
0.000193266
3.77364e-06
9.45271e-08
2.67357e-09
8.64998e-11
4.48287e-12
6.91505e-14
1.38548e-15
3.33713e-17
6.83745e-19
1
1
1
1
1
1
1
1
1
1
1
1
0.0497636
7.77553e-05
1.10307e-06
2.05659e-08
4.91904e-10
2.61467e-11
5.43002e-13
7.38917e-15
1.40393e-16
2.98104e-18
5.15207e-20
1
1
1
1
1
1
1
1
1
1
1
1
0.0242757
3.64053e-05
3.77321e-07
5.05347e-09
1.05692e-10
5.14147e-12
6.37986e-14
7.38787e-16
1.25522e-17
2.33197e-19
3.45858e-21
1
1
1
1
1
1
1
1
1
1
1
1
0.0103951
1.62286e-05
1.33512e-07
1.3606e-09
2.69854e-11
9.66572e-13
8.26256e-15
7.56756e-17
1.06898e-18
1.70593e-20
2.1361e-22
1
1
1
1
1
1
1
1
1
1
1
1
0.00394178
6.64824e-06
4.29431e-08
3.79901e-10
1.24007e-11
1.69556e-13
1.15406e-15
8.19197e-18
9.37433e-20
1.23887e-21
1.27249e-23
1
1
1
1
1
1
1
1
1
1
1
1
0.00121617
2.7181e-06
1.39121e-08
1.06662e-10
3.40565e-12
2.83912e-14
1.53518e-16
8.75578e-19
8.41947e-21
8.90813e-23
7.49761e-25
1
1
1
1
1
1
1
1
1
1
1
1
0.000482456
9.54653e-07
4.12202e-09
2.74102e-11
8.47173e-13
4.36342e-15
1.85576e-17
9.12878e-20
7.13436e-22
6.02803e-24
4.05346e-26
1
1
1
1
1
1
1
1
1
1
1
1
0.000241374
2.93662e-07
1.06395e-09
5.64318e-12
1.72485e-13
6.09598e-16
2.032e-18
8.47413e-21
5.3519e-23
3.55342e-25
1.86545e-27
1
1
1
1
1
1
1
1
1
1
1
1
0.000154083
1.1179e-07
3.06104e-10
2.54171e-12
2.79432e-14
7.54628e-17
1.90352e-19
6.64227e-22
3.42546e-24
1.71044e-26
6.98035e-29
1
1
1
1
1
1
1
1
1
1
1
1
0.000108462
5.10433e-08
1.06982e-10
1.38865e-12
4.72991e-15
8.58122e-18
1.52796e-20
4.34839e-23
1.74055e-25
6.30129e-28
2.01083e-30
1
1
1
1
1
1
1
1
1
1
1
1
6.64187e-05
2.49756e-08
3.35772e-11
5.05458e-13
8.26816e-16
8.9311e-19
1.04573e-21
2.22371e-24
6.3516e-27
1.62104e-29
4.22286e-32
0.999998
1
1
0.999999
0.999999
0.999999
0.999999
0.999999
0.999999
0.999999
0.999998
0.999996
3.76247e-05
-2.86443e-09
9.46713e-12
1.31794e-13
1.15001e-16
6.84928e-20
4.92642e-23
7.57242e-26
1.4743e-28
2.78869e-31
6.2191e-34
0.999958
0.99999
0.99999
0.999989
0.999988
0.999987
0.999986
0.999984
0.999982
0.999979
0.999975
0.99994
2.51542e-05
1.31968e-08
3.24117e-12
2.58893e-14
1.07955e-17
2.40203e-21
1.15578e-24
1.39186e-27
1.79714e-30
2.9869e-33
6.29185e-36
0.999185
0.999809
0.999804
0.999795
0.999783
0.999767
0.999747
0.999724
0.999696
0.999664
0.999612
0.999073
3.25808e-05
2.13133e-09
-1.14781e-10
4.88831e-15
3.08302e-19
3.33958e-23
1.82216e-26
1.4582e-29
1.55543e-32
2.32113e-35
4.50224e-38
0.973189
0.996408
0.996333
0.996216
0.996055
0.995849
0.9956
0.995307
0.994979
0.99462
0.993988
0.982538
2.39585e-06
1.06321e-08
3.0289e-12
2.56454e-15
4.45301e-21
5.179e-25
2.4691e-28
1.36102e-31
1.22552e-34
1.79889e-37
2.59694e-40
0.00359128
0.483392
0.478216
0.470231
0.459728
0.445574
0.42841
0.40936
0.388946
0.367861
0.326927
0.111969
0.0153327
8.70921e-06
-2.29884e-12
-1.8344e-19
4.93097e-23
9.24804e-27
2.33167e-30
8.93712e-34
9.2878e-37
1.04815e-39
9.16321e-43
-5.59153e-36
0
5.16331e-28
1.81951e-24
4.84872e-21
2.28221e-18
8.10635e-17
2.30145e-14
3.45785e-12
3.26964e-10
2.2217e-08
1.64575e-06
0.00433499
6.33375e-07
-2.72181e-11
-9.35057e-20
6.36322e-25
8.18217e-29
8.04612e-33
4.7947e-36
4.80563e-39
2.66919e-42
2.27449e-45
-1.14279e-35
-6.21662e-32
-2.68176e-32
-1.08772e-27
9.62934e-24
4.9331e-20
1.50619e-17
6.24494e-15
1.01211e-12
9.50359e-11
3.9566e-09
7.20869e-08
1.50262e-05
2.96383e-08
-8.82858e-13
-5.79284e-21
-3.58985e-28
-4.64366e-31
2.38164e-35
1.41483e-38
9.75096e-42
7.74137e-45
8.32316e-48
-7.07484e-37
-1.68343e-31
-2.79809e-28
-1.78078e-25
-3.38685e-28
5.50428e-22
-8.04759e-19
-1.07178e-16
-9.97295e-15
-6.76363e-13
-4.62581e-11
-8.87331e-10
4.06345e-08
5.07459e-10
-5.31674e-14
-8.7702e-24
-9.43636e-30
7.65905e-34
1.20794e-37
3.46007e-41
3.09608e-44
2.21611e-47
2.82514e-50
-5.98557e-41
6.92505e-51
-1.28305e-53
-8.30626e-38
-1.02633e-27
4.20634e-25
1.04569e-23
4.95398e-21
4.18783e-19
1.94425e-17
8.01493e-17
1.48792e-14
1.11318e-11
3.08021e-12
-3.34966e-16
5.44395e-27
7.99681e-33
-1.79207e-35
5.68151e-40
3.99638e-44
1.14116e-46
6.67225e-50
7.44438e-53
-1.74917e-45
-2.31161e-39
-2.28635e-36
-4.17136e-49
-6.44392e-33
-4.40009e-29
-1.78476e-26
-1.97836e-25
-2.32197e-23
-6.9882e-22
1.46588e-19
3.18938e-17
1.39628e-14
7.30945e-16
-1.76956e-23
-3.68087e-37
9.23472e-35
-1.7259e-37
-3.90939e-42
4.18138e-46
2.3131e-49
1.84303e-52
1.05184e-55
-3.14914e-54
-1.57316e-45
-2.70985e-42
-1.35415e-51
-6.33067e-38
-2.53188e-35
-5.44329e-33
-2.61952e-30
-9.31538e-29
-6.57088e-27
8.12601e-25
3.86247e-23
1.37787e-20
3.23482e-19
-5.688e-38
-5.61101e-41
2.87829e-37
-4.36907e-40
9.54639e-47
1.11737e-48
4.86918e-52
1.86814e-55
8.40072e-59
-4.57573e-63
-1.07367e-53
-1.21945e-63
-2.97498e-47
-8.68039e-45
-8.5348e-42
-1.13067e-40
-3.31337e-38
2.60396e-35
4.36829e-33
5.29485e-31
6.58638e-29
3.95405e-27
5.7842e-25
-7.42447e-26
-2.73591e-32
2.89575e-40
1.52812e-44
-2.88595e-49
4.23034e-52
1.17263e-55
6.16195e-59
6.55673e-62
-2.06729e-72
-3.57856e-62
1.71557e-60
4.78078e-60
-1.48002e-53
-1.01621e-49
-2.96577e-47
-5.78151e-45
-8.24464e-43
-9.78541e-41
-7.34115e-39
-1.57267e-36
-1.30232e-34
-9.34409e-33
-7.42414e-31
-8.9852e-36
-9.89092e-54
1.57207e-48
-1.47637e-52
-3.21062e-55
6.02618e-59
3.64639e-62
5.17779e-65
-4.17965e-84
-1.66785e-71
-1.06807e-67
-4.45581e-64
-7.60669e-61
-5.86626e-58
-2.7674e-55
-7.91562e-53
-1.6932e-50
-2.4628e-48
-3.28052e-46
-3.44664e-44
-3.16073e-42
-2.41926e-40
-1.90876e-38
-9.91791e-41
-2.06383e-45
-1.25069e-59
8.08999e-55
-2.38663e-57
5.62815e-62
2.26424e-65
3.0102e-68
-6.73372e-96
-3.08083e-83
-1.84956e-79
-4.23764e-76
-5.65014e-73
-5.23377e-70
-1.9526e-66
-8.72263e-64
-1.77185e-61
-3.4754e-59
-6.14995e-57
-1.37646e-54
-3.35698e-52
-3.11084e-50
-2.26506e-48
7.08587e-54
-1.42359e-49
-4.07106e-53
3.93e-59
8.82664e-62
-5.09054e-66
1.69364e-68
9.35877e-72
-2.46815e-105
-3.29489e-94
-3.90613e-90
-1.12711e-86
-3.21133e-83
-1.00661e-79
-9.81003e-77
-4.76744e-74
-2.30505e-71
-6.40469e-69
-1.43168e-66
-2.23384e-64
-3.40254e-62
-4.41792e-60
-4.74699e-58
-1.90651e-56
-1.85674e-54
-1.6168e-56
5.7295e-63
-6.39107e-65
-4.84423e-68
-5.67964e-73
-7.67537e-76
-6.46643e-119
-1.20992e-104
-6.23619e-100
-3.4368e-96
-7.47705e-93
-6.55879e-90
-3.28537e-86
-6.13033e-83
-3.35208e-80
-1.07437e-77
-5.22934e-75
-1.86009e-72
-7.59513e-70
-3.14751e-67
-5.35163e-65
-9.06433e-63
-1.54686e-60
-6.54143e-61
-1.39256e-70
9.85852e-70
-1.80008e-71
-7.84085e-76
-4.52071e-79
-1.11685e-128
-8.11951e-116
-4.22431e-110
-3.73838e-106
-1.26127e-102
-2.20522e-99
-1.55395e-95
-7.8254e-92
-1.82023e-88
-1.08679e-85
-3.72303e-83
-9.19109e-81
-2.26654e-78
-1.75284e-75
-1.51795e-72
-3.87086e-70
-7.85016e-68
-1.27472e-66
-3.48862e-73
-1.26985e-72
-9.36628e-77
-9.43876e-80
-6.98252e-83
-2.92582e-142
-5.96446e-128
-1.73838e-122
-2.25682e-117
-2.51758e-112
-5.19206e-108
-1.28219e-104
-1.86167e-101
-3.99515e-98
-6.42079e-95
-3.69666e-92
-1.44506e-89
-1.2523e-86
-1.113e-83
-2.05133e-80
-7.34463e-78
-2.22173e-75
-6.66917e-73
-2.178e-75
-1.45484e-78
-1.0901e-81
-7.65017e-84
-6.15528e-87
2.48504e-156
-5.99276e-141
-9.87745e-134
-3.23124e-128
-1.15771e-123
-6.31051e-119
-8.32074e-115
-2.11857e-111
-3.56775e-108
3.19842e-105
-9.50505e-101
-7.9298e-98
-3.88097e-95
-5.41401e-91
-5.25141e-88
-1.94855e-85
-7.75556e-83
-2.84183e-80
1.21012e-91
-4.19416e-80
5.95057e-86
7.54924e-89
-5.41991e-91
-4.72183e-167
2.35289e-155
-5.63729e-147
9.7084e-141
-2.12212e-135
-5.38689e-131
-6.57384e-126
-1.16733e-122
-4.19637e-117
-1.28072e-113
-3.12261e-110
1.80246e-107
-4.31477e-104
-4.3504e-101
-6.75676e-97
-8.66669e-94
-4.41306e-91
-2.12492e-88
1.21069e-86
2.00584e-85
-2.48513e-100
4.71768e-94
-4.32411e-95
-5.09095e-181
2.39547e-167
-1.753e-161
-2.39998e-152
-3.32672e-148
-1.55183e-144
-1.92531e-137
-7.05588e-132
-3.88934e-128
-1.04288e-124
-5.7526e-122
-2.06421e-116
-1.34918e-112
-1.76386e-109
-1.055e-106
-1.50251e-102
-1.05491e-99
-1.90481e-97
2.66007e-93
-6.3214e-95
-1.30312e-93
9.4091e-99
5.817e-101
-9.52841e-196
-4.04567e-184
-1.25549e-175
-3.67757e-168
-1.67135e-163
-2.10899e-155
-2.74795e-151
9.04189e-147
-6.56826e-141
-1.85532e-134
-4.21108e-130
-1.46604e-126
-2.97801e-123
-2.25741e-118
-2.62533e-114
-4.77984e-111
-1.81065e-107
-6.35451e-104
-6.93134e-101
-2.70972e-98
-3.88886e-98
6.52156e-104
6.13942e-106
3.67424e-211
-2.96993e-195
-4.02644e-187
-3.46108e-180
-4.02915e-173
-1.89288e-168
-1.56355e-160
-1.65182e-156
4.48492e-152
-3.73437e-146
-1.49818e-139
-4.83458e-135
-9.38851e-132
-1.07131e-128
-1.70907e-123
-3.78594e-119
-1.09168e-115
-1.71811e-112
-2.89078e-109
-8.3379e-107
3.66709e-104
-1.341e-118
1.6277e-111
-4.11792e-229
1.68784e-208
-2.17762e-201
-2.58025e-194
-2.82291e-185
-1.10012e-179
-2.96155e-174
-2.83767e-167
-2.08523e-162
3.0551e-157
-1.09104e-151
-1.30205e-144
-8.36191e-140
-6.36169e-136
-6.10926e-133
-6.13025e-127
-2.37063e-122
-1.19531e-118
-3.34266e-115
-9.84869e-112
-8.31027e-110
-1.06647e-111
-9.95602e-126
-9.82365e-243
-1.48257e-223
1.86061e-214
-1.8707e-207
-2.33632e-200
-3.06391e-191
-7.85079e-186
-2.43469e-180
-3.31428e-173
-3.54145e-168
9.35774e-163
-6.22535e-157
-1.19068e-149
-8.66723e-145
-1.80488e-140
-1.60038e-136
-2.79567e-131
-2.55826e-126
-4.4212e-122
-3.36782e-118
-1.35399e-114
-3.54213e-115
8.63625e-122
-8.81867e-265
-3.3787e-243
-2.15177e-232
2.72006e-223
-3.65811e-216
-8.39846e-209
-1.17702e-199
-5.74003e-195
-3.80056e-189
-4.6902e-183
2.61957e-176
8.38209e-170
-7.39727e-165
-7.24721e-158
-4.78022e-151
-1.94162e-144
-7.35798e-140
-2.16933e-135
2.02542e-130
-2.0378e-124
-6.01004e-120
5.15901e-122
0
0
-2.56717e-269
-1.23415e-262
-1.48894e-251
-9.87676e-245
-4.95425e-233
3.94821e-227
-2.40507e-214
3.17774e-207
-3.36658e-198
-1.35076e-191
1.07014e-183
5.20903e-177
-3.9102e-171
-1.02584e-163
-3.66442e-156
-8.32839e-149
-1.86073e-143
-3.23299e-138
1.52595e-132
-8.95339e-126
2.56737e-129
-1.63275e-128
1.78601e-17
1.49238e-18
7.77941e-20
4.37684e-21
3.82685e-18
5.59942e-19
3.36662e-20
1.54588e-21
2.77929e-19
3.25588e-20
1.8729e-21
8.68111e-23
1.84066e-20
1.83529e-21
9.24362e-23
3.98161e-24
1.1474e-21
1.00594e-22
4.37473e-24
1.71874e-25
6.54747e-23
5.11511e-24
1.9396e-25
7.00723e-27
3.40678e-24
2.35445e-25
7.87962e-27
2.61346e-28
1.63643e-25
9.91387e-27
2.93268e-28
8.82124e-30
7.27157e-27
3.84038e-28
1.00429e-29
2.68724e-31
2.92401e-28
1.35232e-29
3.13654e-31
7.30624e-33
1.0277e-29
4.19637e-31
8.65174e-33
1.72111e-34
3.05355e-31
1.104e-32
2.00512e-34
3.34941e-36
7.42334e-33
2.35336e-34
3.6805e-36
5.10788e-38
1.42342e-34
3.83497e-36
5.01332e-38
5.81205e-40
1.89781e-36
4.41367e-38
4.71923e-40
4.72937e-42
2.43007e-38
3.2147e-40
2.86252e-42
2.694e-44
1.74505e-40
1.32162e-42
1.08386e-44
1.06635e-46
5.39488e-43
3.55436e-45
3.18008e-47
3.09724e-49
1.64437e-45
1.17004e-47
9.17524e-50
6.62419e-52
5.93434e-48
4.04119e-50
2.65811e-52
1.53034e-54
1.80853e-50
1.07036e-52
5.48589e-55
2.70925e-57
4.53373e-53
1.94589e-55
8.632e-58
4.03501e-60
8.44825e-56
2.19686e-58
1.17369e-60
5.20275e-63
6.71966e-59
1.14489e-61
1.00652e-63
4.06229e-66
5.52002e-62
6.49553e-65
7.7088e-67
1.54612e-69
2.92032e-65
-3.13954e-68
2.19015e-70
-6.19803e-73
8.43071e-69
-1.37788e-70
-2.79127e-73
-1.45272e-75
-4.73042e-72
-1.40651e-73
-2.59244e-76
-7.66667e-79
-7.1846e-75
-6.38587e-77
-1.02069e-79
-1.9103e-82
-6.15574e-78
-1.74029e-80
-1.83033e-83
-1.82711e-86
-1.10578e-81
-2.65049e-84
-2.84971e-87
-2.35714e-90
-1.30491e-85
-2.46962e-88
-2.67097e-91
-1.70249e-94
-8.53741e-90
-1.49911e-92
-1.84862e-95
-1.12524e-98
-3.23313e-94
-7.32596e-97
-1.00794e-99
-5.13691e-103
-1.80146e-98
-3.04009e-101
-3.31302e-104
-2.57598e-107
-4.6844e-103
-9.46491e-106
-6.82106e-109
-9.56529e-117
-9.00985e-108
-2.27147e-111
-5.70327e-114
-5.49692e-131
-1.46256e-112
-2.10468e-119
-4.61189e-121
-2.38365e-119
5.6012e-119
3.8822e-122
-9.86942e-126
-1.51267e-122
-5.03745e-128
-3.0533e-123
-1.53494e-126
-4.28429e-127
0
-9.40826e-127
-7.42138e-130
-8.59867e-133
-5.47752e-130
-3.91168e-131
-2.08326e-134
-4.27431e-137
2.30349e-22
2.56036e-25
6.58943e-28
1.15249e-30
1.39431e-33
1.25281e-36
8.80676e-40
2.90084e-43
6.46525e-47
1.94068e-50
4.2865e-54
6.65043e-58
5.88627e-62
1.51096e-66
4.34006e-71
5.26119e-76
2.6779e-81
5.22114e-87
-1.81059e-92
5.48702e-23
6.52421e-26
2.49161e-28
7.02827e-31
1.29793e-33
1.5101e-36
1.34539e-39
7.4115e-43
1.77624e-46
7.85282e-50
1.88147e-53
2.81866e-57
2.92246e-61
1.33773e-65
2.74957e-70
5.36519e-75
3.16426e-80
1.18334e-85
5.2651e-92
3.06812e-24
4.87117e-27
1.92729e-29
5.39255e-32
9.91536e-35
1.22674e-37
1.25725e-40
8.10639e-44
2.21123e-47
9.84226e-51
2.56605e-54
4.46503e-58
5.52034e-62
3.51875e-66
8.34837e-71
2.25632e-75
2.18715e-80
8.74556e-86
1.41544e-91
1.36017e-25
2.73644e-28
1.16256e-30
3.50332e-33
7.00605e-36
9.4716e-39
1.02216e-41
6.94811e-45
1.96532e-48
8.62882e-52
2.26118e-55
4.07398e-59
5.25365e-63
3.55036e-67
8.36392e-72
2.11614e-76
2.0196e-81
8.41987e-87
1.44286e-92
5.44554e-27
1.1764e-29
5.16091e-32
1.62253e-34
3.44975e-37
5.01845e-40
5.62775e-43
3.93489e-46
1.1623e-49
5.11534e-53
1.39609e-56
2.60413e-60
3.37347e-64
2.29101e-68
5.2311e-73
1.29428e-77
1.25782e-82
5.17053e-88
8.75193e-94
2.00563e-28
4.29639e-31
1.86572e-33
5.90569e-36
1.29367e-38
1.96624e-41
2.23311e-44
1.56029e-47
4.78702e-51
2.10341e-54
5.88076e-58
1.11736e-61
1.43168e-65
9.58469e-70
2.1895e-74
5.27841e-79
5.07196e-84
2.08005e-89
3.43016e-95
6.69239e-30
1.36851e-32
5.68852e-35
1.75875e-37
3.85532e-40
5.93993e-43
6.6717e-46
4.5417e-49
1.45702e-52
6.32876e-56
1.76953e-59
3.3615e-63
4.20757e-67
2.73062e-71
6.26961e-76
1.45562e-80
1.36737e-85
5.62968e-91
8.97545e-97
2.00811e-31
3.81499e-34
1.47821e-36
4.36313e-39
9.32663e-42
1.41623e-44
1.5394e-47
9.98048e-51
3.35017e-54
1.41952e-57
3.91915e-61
7.34778e-65
8.88244e-69
5.50807e-73
1.27094e-77
2.81701e-82
2.58018e-87
1.06772e-92
1.63599e-98
5.38362e-33
9.25669e-36
3.27649e-38
9.06848e-41
1.84733e-43
2.69835e-46
2.77721e-49
1.68234e-52
5.89094e-56
2.41018e-59
6.51125e-63
1.19067e-66
1.37378e-70
8.03578e-75
1.86219e-79
3.91934e-84
3.50196e-89
1.45572e-94
2.13052e-100
1.27033e-34
1.93364e-37
6.17469e-40
1.57909e-42
3.0046e-45
4.13121e-48
3.93186e-51
2.19902e-54
8.00068e-58
3.13689e-61
8.21995e-65
1.44838e-68
1.57469e-72
8.59444e-77
1.9984e-81
3.98199e-86
3.47813e-91
1.44989e-96
2.0136e-102
2.53953e-36
3.42185e-39
9.80795e-42
2.28696e-44
3.99251e-47
5.05501e-50
4.34426e-53
2.23976e-56
8.4329e-60
3.14734e-63
7.92244e-67
1.32736e-70
1.34099e-74
6.77414e-79
1.57923e-83
2.97478e-88
2.548e-93
1.06198e-98
1.3895e-104
4.01496e-38
5.03148e-41
1.29507e-43
2.71563e-46
4.27451e-49
4.86814e-52
3.70812e-55
1.78093e-58
6.90253e-62
2.43477e-65
5.82187e-69
9.13668e-73
8.45641e-77
3.93602e-81
9.19439e-86
1.63753e-90
1.38094e-95
5.72665e-101
6.99916e-107
5.15993e-40
6.01154e-43
1.38975e-45
2.58196e-48
3.59938e-51
3.60639e-54
2.41702e-57
1.10578e-60
4.36863e-64
1.44409e-67
3.23741e-71
4.68021e-75
3.91561e-79
1.6786e-83
3.92807e-88
6.62747e-93
5.52816e-98
2.26421e-103
2.55719e-109
5.02457e-42
5.69379e-45
1.17234e-47
1.9002e-50
2.30644e-53
2.0013e-56
1.19273e-59
5.35471e-63
2.11665e-66
6.48978e-70
1.34302e-73
1.75699e-77
1.31445e-81
5.21332e-86
1.22138e-90
1.96071e-95
1.62481e-100
6.50091e-106
6.69743e-112
3.60043e-44
4.13226e-47
7.43643e-50
1.03705e-52
1.08201e-55
8.12229e-59
4.45197e-62
2.00924e-65
7.72051e-69
2.16842e-72
4.06861e-76
4.73294e-80
3.14676e-84
1.16681e-88
2.73357e-93
4.20538e-98
3.46903e-103
1.3344e-108
1.23494e-114
1.79465e-46
2.17816e-49
3.35442e-52
3.99391e-55
3.57788e-58
2.3835e-61
1.26304e-64
5.73181e-68
2.06795e-71
5.24025e-75
8.73938e-79
8.90912e-83
5.27447e-87
1.85925e-91
4.34786e-96
6.47504e-101
5.29663e-106
1.91457e-111
1.56059e-117
5.45343e-49
7.67745e-52
1.00563e-54
1.03125e-57
8.12355e-61
5.08283e-64
2.70936e-67
1.19796e-70
3.92587e-74
8.8117e-78
1.28131e-81
1.13665e-85
6.08146e-90
2.08348e-94
4.85333e-99
7.06831e-104
5.65178e-109
1.8621e-114
1.30444e-120
1.32483e-51
1.72224e-54
1.9081e-57
1.71419e-60
1.25931e-63
7.91795e-67
4.2263e-70
1.73228e-73
5.01785e-77
9.77726e-81
1.22406e-84
9.53474e-89
4.75822e-93
1.62173e-97
3.76004e-102
5.3734e-107
4.07424e-112
1.1776e-117
6.90028e-124
2.80087e-54
2.91054e-57
2.56251e-60
1.92726e-63
1.38172e-66
8.76936e-70
4.39942e-73
1.59819e-76
4.00113e-80
6.67106e-84
7.23847e-88
5.13357e-92
2.5057e-96
8.65478e-101
1.9946e-105
2.75633e-110
1.8883e-115
4.58087e-121
2.1895e-127
4.0087e-57
3.72599e-60
2.70825e-63
1.90323e-66
1.26655e-69
6.82664e-73
2.79065e-76
8.41922e-80
1.77424e-83
2.56255e-87
2.53056e-91
1.75494e-95
8.80818e-100
3.10605e-104
7.02921e-109
8.9873e-114
5.23269e-119
1.02085e-124
3.95437e-131
7.45383e-60
4.75104e-63
2.73533e-66
1.53128e-69
8.75058e-73
3.63407e-76
1.10284e-79
2.44618e-83
4.02565e-87
5.21765e-91
5.14499e-95
3.78425e-99
2.01539e-103
7.15862e-108
1.52221e-112
1.674e-117
7.80723e-123
1.19952e-128
4.00935e-135
1.18703e-62
5.94324e-66
3.08474e-69
1.36848e-72
4.82191e-76
1.28937e-79
2.58293e-83
4.01626e-87
5.18831e-91
6.99885e-95
7.26632e-99
5.46685e-103
2.91295e-107
9.56419e-112
1.73602e-116
1.50924e-121
5.5064e-127
7.15516e-133
2.54277e-139
1.30558e-65
6.45591e-69
2.69473e-72
8.91992e-76
2.24123e-79
4.3381e-83
6.87186e-87
9.43841e-91
1.12998e-94
1.13082e-98
8.76937e-103
5.59527e-107
2.50471e-111
6.17008e-116
7.97008e-121
5.0129e-126
1.58077e-131
2.31655e-137
1.06421e-143
9.84325e-69
5.22002e-72
1.71334e-75
4.10882e-79
7.35328e-83
1.12271e-86
1.61961e-90
2.11582e-94
2.33659e-98
2.04089e-102
1.27879e-106
5.21724e-111
1.32273e-115
1.9564e-120
1.75766e-125
1.00069e-130
3.47108e-136
7.37719e-142
4.30245e-147
5.65536e-72
2.52249e-75
5.83497e-79
1.06851e-82
1.73969e-86
2.73102e-90
3.8781e-94
4.62541e-98
4.2837e-102
2.85268e-106
1.26666e-110
3.54263e-115
6.38208e-120
7.83538e-125
7.36186e-130
4.4302e-135
1.30669e-140
1.70576e-146
1.576e-149
1.97405e-75
7.17683e-79
9.2492e-83
1.55016e-86
2.95941e-90
5.45679e-94
7.96688e-98
8.46147e-102
5.9528e-106
2.75004e-110
8.12721e-115
1.62749e-119
2.65762e-124
3.53552e-129
3.16354e-134
1.46527e-139
3.01064e-145
1.05307e-147
2.78729e-154
3.91085e-79
1.10417e-82
1.33556e-86
3.3372e-90
6.34273e-94
9.17228e-98
9.91835e-102
8.01823e-106
4.3e-110
1.53388e-114
3.86504e-119
7.89707e-124
1.39569e-128
1.61977e-133
1.01139e-138
2.95667e-144
4.3558e-147
1.9469e-152
2.39499e-159
-1.53841e-82
2.78266e-87
1.71094e-90
5.61784e-94
1.00418e-97
1.16443e-101
8.75973e-106
4.33444e-110
1.6015e-114
5.18831e-119
1.53662e-123
3.88989e-128
6.13341e-133
5.22382e-138
2.16364e-143
4.42331e-147
3.53197e-151
1.28446e-157
3.3113e-164
-6.20881e-86
5.63966e-91
1.92662e-94
6.42513e-98
7.97239e-102
5.38334e-106
2.44871e-110
1.16926e-114
6.29031e-119
2.64756e-123
7.35465e-128
1.26985e-132
1.26481e-137
6.90168e-143
3.98421e-147
3.75831e-150
2.45758e-156
1.35366e-162
5.60609e-167
-1.7953e-90
1.30504e-94
-1.48701e-99
-4.63294e-103
-1.56701e-106
-1.16677e-110
4.04465e-116
5.2765e-119
3.23485e-123
1.04565e-127
2.04687e-132
2.43345e-137
1.58329e-142
4.22983e-147
1.79709e-149
2.29373e-155
1.36934e-161
1.96865e-165
1.05564e-171
-4.81297e-94
1.88855e-98
-2.90708e-102
-4.28469e-106
-4.95832e-110
-1.13083e-114
2.57674e-119
2.75826e-123
1.03535e-127
2.16987e-132
2.702e-137
1.97249e-142
4.4213e-147
5.85603e-149
9.75932e-155
9.32411e-161
2.7932e-165
6.81179e-170
3.74077e-177
-4.36668e-98
-4.21346e-102
-1.11919e-105
-7.45739e-110
-1.11471e-114
1.24242e-119
7.67751e-124
3.18065e-128
9.62958e-133
1.65487e-137
1.30267e-142
4.17708e-147
1.05428e-148
2.59411e-154
4.27705e-160
3.4726e-165
6.3523e-169
1.72773e-175
4.80752e-183
-4.67178e-102
-4.12867e-106
-3.97045e-110
-1.26351e-114
-3.22716e-119
-1.43713e-123
-1.44078e-128
-3.16444e-133
-1.94804e-138
-1.09431e-142
3.41875e-147
1.42704e-148
4.66678e-154
1.20562e-159
6.5441e-165
2.46716e-168
1.61679e-174
6.02326e-181
3.44148e-187
-2.33683e-106
-1.06869e-110
-6.05014e-115
-3.39797e-119
-1.93171e-123
-7.82197e-128
-2.03456e-132
-3.22522e-137
-3.59082e-142
2.74101e-147
1.62762e-148
7.94565e-154
2.67182e-159
1.68642e-164
6.93985e-168
6.22376e-174
9.20074e-180
1.3069e-184
2.22129e-191
-1.13009e-111
-9.01486e-116
-1.44861e-119
-1.09895e-123
-5.15368e-128
-1.51648e-132
-2.69037e-137
-2.70571e-142
2.24489e-147
1.46798e-148
9.49133e-154
4.76035e-159
1.90182e-164
2.20959e-167
2.56701e-173
6.46056e-179
7.12415e-183
1.80955e-189
1.75691e-197
-1.86431e-119
1.33149e-120
-7.35499e-124
-1.5303e-128
-4.99024e-133
-9.21719e-138
-1.03768e-142
2.96045e-147
7.83759e-149
6.88667e-154
3.68217e-159
1.71009e-164
1.95616e-167
4.36266e-173
1.45024e-178
4.82933e-182
3.16123e-188
8.36377e-196
1.71063e-204
4.87376e-122
7.45042e-126
-2.03211e-129
-8.95207e-134
-1.58064e-138
-2.12174e-143
3.60013e-147
2.94203e-149
2.85414e-154
1.66779e-159
9.06673e-165
1.32169e-167
6.02101e-173
1.89471e-178
8.45972e-182
1.32388e-187
5.96456e-195
6.07209e-203
2.87212e-211
4.27501e-127
4.35112e-131
-1.02982e-134
-2.47497e-139
-4.09903e-144
4.19321e-147
8.32594e-150
8.52871e-155
3.90331e-160
3.97776e-165
6.15413e-168
4.97432e-173
1.52575e-178
7.72683e-182
1.7919e-187
1.02415e-194
4.07032e-202
8.30823e-210
1.75403e-217
9.12615e-133
-3.25067e-137
3.59715e-147
1.08084e-145
4.6522e-147
2.08018e-150
2.57675e-155
8.47527e-161
1.79144e-165
3.25929e-168
3.02408e-173
8.49003e-179
4.36599e-182
8.80903e-188
5.99378e-195
8.10804e-202
1.1708e-208
1.95303e-215
1.99548e-223
3.59672e-147
3.60213e-147
8.77918e-147
2.82811e-147
1.98249e-151
2.22595e-156
1.46398e-161
5.66057e-166
1.55833e-168
1.40478e-173
4.50965e-179
2.34877e-182
3.2486e-188
6.67145e-195
3.70946e-201
3.99862e-207
3.91002e-214
6.69783e-222
3.09828e-232
3.6088e-147
-5.44134e-144
2.03316e-148
6.0241e-153
8.2207e-158
2.14918e-162
1.24282e-166
3.29203e-169
3.92109e-174
9.10398e-180
8.79126e-183
8.63289e-189
4.83997e-195
1.1489e-198
1.67498e-206
1.5125e-213
4.37003e-221
8.15503e-231
2.77928e-240
-4.56769e-145
-6.33831e-150
-1.29123e-154
3.3605e-159
1.16107e-163
3.20181e-167
3.26649e-170
4.08981e-175
6.19673e-181
8.37219e-184
1.34856e-189
8.50716e-196
4.53588e-199
1.27444e-206
2.31745e-213
7.72256e-221
5.04364e-230
7.70543e-239
3.75101e-249
1
1
1
1
1
1
1
1
1
1
1
0.999727
0.983736
0.750224
0.0486539
0.00758023
0.000752773
4.61968e-05
1.74763e-06
3.87834e-08
3.44671e-10
7.05128e-13
2.47172e-14
1
1
1
1
1
1
1
1
1
1
1
0.999536
0.928508
0.182139
0.0388892
0.0130533
0.00108289
7.87639e-05
3.61956e-06
9.6844e-08
1.02955e-09
3.39547e-12
5.84943e-14
1
1
1
1
1
1
1
1
1
1
1
1
0.773414
0.0427462
0.0103425
0.00232986
0.000315586
2.45932e-05
1.19664e-06
3.28962e-08
3.79051e-10
1.68337e-12
3.17383e-14
1
1
1
1
1
1
1
1
1
1
1
1
0.508281
0.0198382
0.0035023
0.000628408
8.01107e-05
6.43457e-06
3.2025e-07
8.81106e-09
1.15813e-10
6.39947e-13
1.15862e-14
1
1
1
1
1
1
1
1
1
1
1
1
0.287653
0.0094602
0.00120526
0.000170398
1.97594e-05
1.54494e-06
7.52687e-08
2.10508e-09
3.69088e-11
2.14562e-13
4.25687e-15
1
1
1
1
1
1
1
1
1
1
1
1
0.154213
0.00453156
0.000433324
4.81919e-05
4.84158e-06
3.49222e-07
1.62446e-08
4.75816e-10
1.01891e-11
6.81212e-14
1.7143e-15
1
1
1
1
1
1
1
1
1
1
1
1
0.0871768
0.00236494
0.000170717
1.46921e-05
1.21637e-06
7.73103e-08
3.39286e-09
1.18133e-10
2.57101e-12
2.24327e-14
8.05322e-16
1
1
1
1
1
1
1
1
1
1
1
1
0.0479058
0.00138542
7.78027e-05
5.07479e-06
3.31597e-07
1.77606e-08
7.12532e-10
2.65867e-11
6.28623e-13
7.83481e-15
4.16146e-16
8.0033e-45
2.92417e-47
3.37596e-50
1.38905e-53
5.49991e-57
2.54164e-60
9.64678e-64
2.40549e-67
2.38736e-71
9.75538e-76
7.15989e-80
4.06851e-84
1.79592e-88
3.67656e-93
1.99444e-98
2.71648e-104
4.77681e-110
1.99859e-116
1.00262e-120
6.11401e-41
6.57445e-44
1.40782e-46
9.55545e-50
3.67735e-53
1.96516e-56
9.38633e-60
3.25873e-63
5.54313e-67
2.56088e-71
5.10818e-76
4.79934e-80
2.14197e-84
4.2109e-89
1.90984e-94
3.01338e-100
8.82184e-106
4.861e-112
7.2829e-119
1.61462e-37
3.46038e-40
9.66954e-43
1.16265e-45
4.55096e-49
1.47026e-52
7.09351e-56
2.79881e-59
7.32889e-63
8.33593e-67
2.56406e-71
1.07731e-75
5.33991e-80
1.91869e-84
2.85239e-89
1.0011e-94
7.13579e-101
3.48173e-107
4.73731e-114
1.55663e-34
3.81544e-37
1.19311e-39
1.97643e-42
1.57675e-45
4.96675e-49
1.52782e-52
6.04676e-56
1.81209e-59
3.52304e-63
2.78457e-67
1.03757e-71
3.8502e-76
1.1993e-80
2.11034e-85
1.77447e-90
3.10959e-96
9.47625e-103
2.69762e-109
8.09361e-32
2.03625e-34
6.19495e-37
9.47363e-40
1.1153e-42
8.39921e-46
2.08468e-49
5.44209e-53
1.39393e-56
3.63353e-60
6.9316e-64
6.12288e-68
1.44871e-72
2.49018e-77
3.51285e-82
4.13358e-87
1.61245e-92
1.19033e-98
3.10253e-105
2.4006e-29
6.16405e-32
1.50656e-34
2.04049e-37
2.44779e-40
2.66045e-43
1.65703e-46
2.99732e-50
4.74364e-54
1.22657e-57
2.65623e-61
3.8107e-65
2.47662e-69
3.46691e-74
2.83629e-79
2.94257e-84
1.79801e-89
2.65196e-95
3.18205e-101
4.20542e-27
8.85086e-30
1.87383e-32
2.55911e-35
3.03978e-38
3.39e-41
3.05079e-44
1.00671e-47
8.97471e-52
2.25406e-55
4.63819e-59
7.45741e-63
7.02285e-67
2.17727e-71
1.03079e-76
9.81248e-82
4.69065e-87
8.08323e-93
6.54467e-98
2.42108e-24
5.34628e-28
1.07713e-30
1.55234e-33
1.85263e-36
1.94461e-39
1.82309e-42
9.00441e-46
8.81767e-50
1.96145e-53
3.60155e-57
5.66241e-61
6.2713e-65
2.69847e-69
1.72737e-74
1.41042e-79
5.85807e-85
1.15037e-90
1.83121e-95
1
1
1
1
1
1
1
1
1
1
1
1.00011
0.0207322
0.000728308
3.17e-05
1.51983e-06
7.3655e-08
3.08314e-09
1.19548e-10
3.41674e-12
9.97584e-14
2.29334e-15
8.77607e-17
1
1
1
1
1
1
1
1
1
1
1
0.939977
0.00751244
0.000258713
9.67265e-06
3.77716e-07
1.43966e-08
4.85508e-10
1.5529e-11
3.6066e-13
1.0598e-14
3.16222e-16
1.32872e-17
1
1
1
1
1
1
1
1
1
1
1
0.86685
0.00349014
8.19496e-05
2.43924e-06
8.15689e-08
2.71439e-09
9.25469e-11
2.22442e-12
4.19532e-14
1.1326e-15
3.03109e-17
1.08424e-18
1
1
1
1
1
1
1
1
1
1
1
0.786378
0.00158324
2.59739e-05
5.83561e-07
1.58154e-08
4.57527e-10
1.77394e-11
2.7467e-13
4.69786e-15
1.17375e-16
2.61344e-18
8.08179e-20
1
1
1
1
1
1
1
1
1
1
1
0.702837
0.000749525
8.90206e-06
1.46275e-07
3.03344e-09
8.26385e-11
2.70198e-12
3.00131e-14
4.69142e-16
1.06578e-17
2.01547e-19
5.46897e-21
1
1
1
1
1
1
1
1
1
1
1
0.620827
0.000392216
3.58352e-06
4.23571e-08
6.50071e-10