/*--------------------------------*- C++ -*----------------------------------*\
| =========                 |                                                 |
| \\      /  F ield         | OpenFOAM: The Open Source CFD Toolbox           |
|  \\    /   O peration     | Version:  v1912                                 |
|   \\  /    A nd           | Website:  www.openfoam.com                      |
|    \\/     M anipulation  |                                                 |
\*---------------------------------------------------------------------------*/
FoamFile
{
    version     2.0;
    format      ascii;
    class       volScalarField;
    location    "0.05";
    object      p;
}
// * * * * * * * * * * * * * * * * * * * * * * * * * * * * * * * * * * * * * //

dimensions      [1 -1 -2 0 0 0 0];


internalField   nonuniform List<scalar> 
9072
(
1282.45
1304.47
1287.43
1260.33
1222.67
1173.79
1112.83
1038.42
948.621
840.698
711.023
554.413
356.389
120.096
20.826
5.37345
2.94161
2.42803
2.15759
1.98658
1.87552
1.80551
1.76906
1225.52
1246.76
1229.75
1202.69
1165.06
1116.23
1055.34
980.995
891.223
783.221
653.164
495.463
290.954
56.4758
7.20685
3.21026
2.52302
2.30046
2.07501
1.91557
1.80825
1.73937
1.70339
1170.14
1190.63
1173.66
1146.67
1109.15
1060.45
999.707
925.513
835.824
727.712
596.883
436.954
217.915
23.1883
3.92434
2.24992
2.14167
2.11228
1.96203
1.82778
1.72856
1.66224
1.62701
1116.33
1136.06
1119.17
1092.3
1054.94
1006.45
945.96
872.014
782.526
674.395
542.84
380.907
145.947
10.2387
2.54688
1.97137
1.967
1.94524
1.83924
1.72806
1.63814
1.57477
1.53978
1064.07
1083.07
1066.28
1039.57
1002.44
954.253
894.117
820.559
731.449
623.581
491.812
329.437
88.7872
4.95177
1.9637
1.8185
1.81855
1.79407
1.71217
1.62009
1.53896
1.47755
1.44177
1013.41
1031.65
1015
988.499
951.671
903.879
844.22
771.226
682.759
575.571
444.473
283.971
49.6177
2.73182
1.70917
1.6852
1.6793
1.65164
1.58591
1.50696
1.43237
1.37146
1.33167
964.314
981.82
965.33
939.099
902.651
855.355
796.308
724.077
636.553
530.586
401.207
244.496
26.6843
1.9657
1.56043
1.55524
1.54593
1.51668
1.45903
1.39043
1.32067
1.25771
1.20903
916.736
933.579
917.291
891.382
855.4
808.711
750.426
679.174
592.943
488.774
362.108
211.121
14.5842
1.62887
1.43681
1.42683
1.41406
1.38475
1.33497
1.27263
1.2055
1.13878
1.07222
0.861181
0.884496
0.87127
0.853262
0.832945
0.812001
0.79141
0.771785
0.753504
0.736758
0.721616
0.708062
0.696099
0.685802
0.67725
0.670453
0.665357
0.661884
0.659979
0.80368
0.826421
0.812974
0.794698
0.774166
0.753084
0.732407
0.712738
0.694446
0.677697
0.662544
0.648982
0.637022
0.626734
0.618189
0.611396
0.606302
0.60283
0.600926
0.747322
0.7694
0.755367
0.736487
0.715492
0.694087
0.673196
0.653414
0.635089
0.618329
0.603145
0.589559
0.577618
0.567369
0.558851
0.552064
0.546968
0.543495
0.541592
0.691912
0.713665
0.698587
0.678628
0.656863
0.634965
0.613766
0.593816
0.575423
0.558629
0.543401
0.529791
0.517889
0.507712
0.499243
0.492467
0.487362
0.483883
0.481978
0.637219
0.659047
0.642383
0.62097
0.598199
0.575674
0.55411
0.533952
0.515434
0.498568
0.483302
0.469694
0.457847
0.44776
0.439358
0.432603
0.427489
0.423997
0.422088
0.582315
0.606118
0.586933
0.563465
0.539423
0.51616
0.494195
0.473804
0.455111
0.438135
0.422848
0.409282
0.397508
0.387509
0.379185
0.372468
0.367352
0.363846
0.361932
0.525677
0.554792
0.531826
0.505956
0.480472
0.456361
0.433958
0.413323
0.394441
0.377342
0.362052
0.348565
0.336879
0.32696
0.318715
0.312051
0.30695
0.303437
0.301514
0.459547
0.505992
0.476943
0.448241
0.421222
0.396225
0.373334
0.35244
0.333403
0.316216
0.300937
0.287545
0.275959
0.266115
0.257939
0.251339
0.246278
0.242775
0.24085
832.816
873.766
857.781
832.351
797.052
751.264
694.128
624.373
540.173
438.925
316.715
172.998
7.27474
1.27374
1.27366
1.26571
1.25166
1.22286
1.17791
1.12206
1.05779
0.985011
0.88245
742.823
780.497
765.133
740.702
706.828
662.959
608.359
541.981
462.403
367.749
255.368
126.343
3.06957
0.946605
1.01269
1.01339
0.999018
0.972226
0.933473
0.883681
0.823856
0.752614
0.664909
659.764
694.27
679.665
656.46
624.339
582.85
531.423
469.269
395.404
308.656
207.437
93.7331
1.58805
0.735577
0.77468
0.770904
0.755968
0.731735
0.697851
0.654202
0.601646
0.540386
0.469485
583.454
614.956
601.233
579.455
549.371
510.643
462.873
405.526
338.009
259.721
169.821
70.3849
0.83401
0.544015
0.543787
0.53649
0.52167
0.500377
0.470941
0.433242
0.388309
0.336655
0.279334
513.586
542.293
529.542
509.344
481.514
445.817
402.015
349.802
288.888
219.072
139.995
53.396
0.368826
0.309373
0.310729
0.306355
0.293959
0.275947
0.250657
0.218749
0.181067
0.138183
0.0916197
449.781
475.919
464.205
445.685
420.244
387.741
348.06
301.074
246.724
185.073
116.047
40.8885
0.111073
0.0725405
0.0837931
0.0822203
0.0721915
0.0572429
0.0361536
0.00961152
-0.0216705
-0.0567912
-0.0946656
391.637
415.432
404.792
388.008
365.018
335.765
300.226
258.4
210.378
156.388
96.5228
31.4931
-0.0847676
-0.130455
-0.131078
-0.135156
-0.144115
-0.156199
-0.173309
-0.195029
-0.220542
-0.249066
-0.279808
338.715
360.402
350.847
335.813
315.277
289.24
257.754
220.901
178.868
131.957
80.3402
24.2459
-0.324457
-0.335578
-0.342157
-0.3481
-0.355925
-0.365242
-0.378707
-0.395987
-0.416242
-0.439027
-0.463802
290.532
310.364
301.888
288.579
270.446
247.532
219.937
187.795
151.345
110.918
66.7039
18.5036
-0.594455
-0.554593
-0.554145
-0.558713
-0.564503
-0.570866
-0.580781
-0.593777
-0.609357
-0.627153
-0.646808
246.611
264.822
257.408
245.773
229.957
210.034
186.125
158.401
127.119
92.6035
55.0406
13.9357
-0.746246
-0.762841
-0.764873
-0.767766
-0.770563
-0.773675
-0.780008
-0.789002
-0.800378
-0.813812
-0.828853
206.443
223.273
216.871
206.841
193.24
176.145
155.699
132.093
105.578
76.4609
44.8941
10.1406
-1.00264
-0.981447
-0.977085
-0.975676
-0.974526
-0.974277
-0.977048
-0.98229
-0.989668
-0.998942
-1.00992
169.526
185.206
179.77
171.263
159.747
145.309
128.105
108.33
86.2196
62.0498
35.9349
6.95837
-1.27676
-1.20632
-1.18894
-1.18156
-1.1764
-1.17277
-1.1722
-1.17378
-1.17731
-1.18266
-1.18981
135.431
150.139
145.615
138.543
128.979
117.027
102.849
86.6267
68.593
48.9958
27.9134
4.36325
-1.47083
-1.41314
-1.39384
-1.38374
-1.37571
-1.36928
-1.3654
-1.36351
-1.36343
-1.36502
-1.36836
103.592
117.614
113.929
108.187
100.442
90.8084
79.429
66.4948
52.2491
36.9106
20.5565
2.24978
-1.6383
-1.60522
-1.59144
-1.58209
-1.57266
-1.56401
-1.55709
-1.55171
-1.54797
-1.5459
-1.54562
73.6166
87.1122
84.2232
79.7192
73.6599
66.158
57.3619
47.4732
36.7368
25.397
13.5891
0.52194
-1.80789
-1.79221
-1.78568
-1.77868
-1.76858
-1.75753
-1.74746
-1.73855
-1.73103
-1.72535
-1.72156
45.2493
58.0685
55.9048
52.5436
48.0391
42.4894
36.0489
28.9247
21.3829
13.7726
6.40403
-0.952706
-1.97127
-1.97818
-1.98118
-1.97701
-1.96541
-1.95112
-1.93703
-1.92407
-1.91271
-1.9034
-1.89603
17.289
31.5628
30.0816
27.7894
24.744
21.0101
16.7254
12.0897
7.4113
3.18257
-0.0362221
-1.90022
-2.14369
-2.16691
-2.18553
-2.18183
-2.16544
-2.14554
-2.12615
-2.10837
-2.09286
-2.07977
-2.06884
-4.52865
-0.104583
-0.975652
-2.28785
-4.05801
-6.21768
-8.67729
-11.2597
-13.6926
-15.36
-15.1078
-9.03729
-2.21274
-2.38357
-2.41434
-2.39904
-2.37034
-2.34093
-2.31432
-2.29103
-2.27111
-2.25413
-2.23974
-3.88453
5.01938
5.01791
4.94882
4.82907
4.72048
4.60104
4.49806
4.44078
4.47463
4.61871
-0.45979
-2.95018
-2.7833
-2.69364
-2.63088
-2.57827
-2.5354
-2.50029
-2.47106
-2.44656
-2.42589
-2.40839
-4.01472
-3.99541
-3.99026
-3.97938
-3.96364
-3.94392
-3.92046
-3.89341
-3.86443
-3.83875
-3.83692
-3.95945
-4.4394
-3.39542
-3.00137
-2.86219
-2.78154
-2.72501
-2.6817
-2.64695
-2.61841
-2.59451
-2.57425
-4.03974
-4.02287
-4.01458
-4.0035
-3.98709
-3.9662
-3.94072
-3.91118
-3.87695
-3.84068
-3.8053
-3.80032
-3.74552
-3.43084
-3.19949
-3.05877
-2.96841
-2.90467
-2.85619
-2.81756
-2.78588
-2.75944
-2.73703
-4.07068
-4.048
-4.04158
-4.02925
-4.01202
-3.98992
-3.96299
-3.93043
-3.89253
-3.84694
-3.79497
-3.7341
-3.62697
-3.46522
-3.3252
-3.21738
-3.13538
-3.07231
-3.02237
-2.98189
-2.94852
-2.92047
-2.8966
-4.11969
-4.09128
-4.08282
-4.06961
-4.05171
-4.02878
-4.00024
-3.96593
-3.92513
-3.87737
-3.81967
-3.74894
-3.65542
-3.54743
-3.44629
-3.35957
-3.28778
-3.22898
-3.1805
-3.14017
-3.1063
-3.07755
-3.05297
-4.17125
-4.14161
-4.13381
-4.12129
-4.10369
-4.08079
-4.05266
-4.01818
-3.97744
-3.92933
-3.8726
-3.80571
-3.72723
-3.64426
-3.5649
-3.49322
-3.43089
-3.37747
-3.33178
-3.29277
-3.25946
-3.23084
-3.20609
-4.2278
-4.19575
-4.18831
-4.1762
-4.15939
-4.13756
-4.11015
-4.07725
-4.03826
-3.99276
-3.94032
-3.88074
-3.8153
-3.74799
-3.68279
-3.62233
-3.56788
-3.51961
-3.47732
-3.4405
-3.40845
-3.38046
-3.35604
-4.28934
-4.25487
-4.24778
-4.23663
-4.22065
-4.20002
-4.17424
-4.14319
-4.10715
-4.06548
-4.01854
-3.96669
-3.91141
-3.85512
-3.80019
-3.74829
-3.70042
-3.6571
-3.61834
-3.58399
-3.55362
-3.52674
-3.50304
-4.356
-4.31935
-4.31285
-4.30221
-4.28756
-4.26833
-4.24458
-4.21637
-4.18344
-4.14595
-4.1044
-4.05931
-4.01198
-3.96409
-3.91705
-3.87201
-3.82987
-3.79101
-3.75569
-3.72396
-3.6955
-3.67004
-3.64735
-4.42672
-4.38838
-4.38229
-4.37267
-4.35924
-4.34191
-4.32044
-4.29492
-4.26535
-4.23203
-4.19541
-4.15625
-4.11546
-4.07428
-4.03357
-3.99424
-3.957
-3.92223
-3.89024
-3.86106
-3.83461
-3.8107
-3.78921
-4.50217
-4.46169
-4.45623
-4.44753
-4.43545
-4.41972
-4.40054
-4.37787
-4.35162
-4.32228
-4.29034
-4.25627
-4.22106
-4.1854
-4.14992
-4.11542
-4.08243
-4.05135
-4.02244
-3.9958
-3.97135
-3.94903
-3.92884
-4.58089
-4.539
-4.53404
-4.52611
-4.51512
-4.50121
-4.48423
-4.46414
-4.44127
-4.41579
-4.38793
-4.3585
-4.32811
-4.29707
-4.26608
-4.23574
-4.20649
-4.17872
-4.15269
-4.12844
-4.10596
-4.08532
-4.06648
-4.66317
-4.6197
-4.61517
-4.60803
-4.59828
-4.58586
-4.57092
-4.55351
-4.53366
-4.51151
-4.48757
-4.46232
-4.43594
-4.40893
-4.38188
-4.3552
-4.32929
-4.30452
-4.28112
-4.25915
-4.23868
-4.21974
-4.20236
-4.74804
-4.70351
-4.6994
-4.69298
-4.68428
-4.67343
-4.66038
-4.64519
-4.628
-4.60907
-4.58862
-4.56677
-4.54391
-4.52052
-4.49696
-4.47359
-4.45076
-4.42878
-4.40787
-4.38815
-4.3697
-4.35255
-4.33673
-4.83641
-4.79025
-4.7866
-4.78092
-4.77329
-4.76374
-4.75234
-4.73918
-4.72442
-4.70813
-4.69039
-4.67149
-4.65179
-4.6316
-4.61118
-4.59085
-4.57092
-4.55163
-4.53316
-4.51567
-4.49926
-4.48394
-4.46973
-4.92783
-4.88031
-4.87708
-4.87206
-4.86531
-4.85692
-4.84694
-4.83546
-4.82254
-4.80829
-4.79293
-4.77667
-4.75973
-4.74235
-4.72475
-4.70724
-4.69006
-4.67334
-4.65725
-4.64197
-4.62757
-4.61407
-4.6015
-5.02207
-4.97345
-4.97055
-4.96607
-4.96006
-4.95258
-4.94373
-4.93359
-4.92226
-4.90993
-4.89671
-4.88275
-4.86822
-4.85333
-4.83833
-4.82341
-4.80872
-4.79438
-4.78056
-4.76737
-4.7549
-4.74316
-4.73221
-5.11784
-5.06874
-5.06621
-5.06225
-5.05693
-5.05035
-5.04259
-5.03376
-5.02398
-5.01336
-5.00202
-4.99009
-4.97775
-4.96518
-4.95252
-4.93989
-4.92741
-4.91524
-4.90349
-4.89221
-4.88151
-4.87145
-4.86207
-5.21454
-5.16517
-5.16302
-5.15966
-5.15515
-5.14953
-5.14291
-5.13538
-5.12705
-5.11804
-5.10847
-5.09849
-5.08822
-5.07775
-5.06718
-5.05664
-5.04625
-5.0361
-5.02624
-5.01673
-5.0077
-4.99922
-4.99131
-5.31244
-5.26254
-5.26076
-5.25797
-5.25423
-5.24957
-5.24408
-5.23782
-5.23092
-5.22349
-5.21565
-5.20748
-5.19908
-5.19054
-5.18196
-5.17345
-5.16507
-5.15683
-5.14878
-5.14098
-5.1336
-5.12664
-5.12013
-5.41155
-5.36128
-5.35985
-5.35764
-5.35465
-5.3509
-5.34647
-5.34142
-5.33586
-5.32987
-5.32355
-5.31699
-5.3103
-5.3036
-5.29692
-5.29031
-5.28378
-5.27736
-5.27108
-5.26501
-5.25921
-5.25374
-5.2486
-5.51114
-5.46089
-5.45985
-5.45816
-5.45588
-5.45303
-5.44965
-5.44579
-5.44151
-5.43691
-5.43207
-5.42709
-5.42209
-5.41711
-5.41217
-5.40729
-5.40248
-5.39779
-5.39323
-5.38881
-5.38458
-5.38058
-5.37681
-5.61115
-5.56072
-5.55994
-5.55873
-5.55712
-5.55515
-5.55284
-5.55022
-5.54734
-5.54424
-5.54098
-5.53764
-5.53428
-5.53094
-5.52765
-5.52443
-5.52128
-5.51825
-5.51533
-5.51252
-5.50982
-5.50728
-5.50487
-5.71084
-5.66126
-5.6608
-5.66009
-5.65914
-5.658
-5.65668
-5.6552
-5.65359
-5.6519
-5.65015
-5.64837
-5.6466
-5.64487
-5.64321
-5.64163
-5.64014
-5.63874
-5.63743
-5.63621
-5.63504
-5.63395
-5.63291
0.55532
0.562541
0.553082
0.518792
0.572207
0.512839
0.466401
0.426375
0.401134
0.363601
0.328045
0.295159
0.226855
0.198157
0.170514
0.143996
0.0496304
0.0268427
0.00478738
-0.0165964
-0.128695
-0.147075
-0.16493
-0.182387
-0.307392
-0.322228
-0.336744
-0.351112
-0.486055
-0.498024
-0.509802
-0.52152
-0.664613
-0.674195
-0.683607
-0.692897
-0.842808
-0.850307
-0.857502
-0.864543
-1.0203
-1.02578
-1.03094
-1.03598
-1.19675
-1.20032
-1.20366
-1.20692
-1.37204
-1.37389
-1.37557
-1.37725
-1.54621
-1.54647
-1.54665
-1.54687
-1.71918
-1.71794
-1.7167
-1.71555
-1.89076
-1.88808
-1.88549
-1.88305
-2.06077
-2.0567
-2.05281
-2.04916
-2.22905
-2.22362
-2.21847
-2.21373
-2.39525
-2.38858
-2.38238
-2.37669
-2.55904
-2.55139
-2.54432
-2.5378
-2.72025
-2.71186
-2.70408
-2.69683
-2.87876
-2.86981
-2.86144
-2.85363
-3.03447
-3.02511
-3.01635
-3.00814
-3.18731
-3.17777
-3.16879
-3.16033
-3.33735
-3.32782
-3.3188
-3.31023
-3.48476
-3.47537
-3.46642
-3.4579
-3.6297
-3.62055
-3.61179
-3.60341
-3.77234
-3.76352
-3.75503
-3.74693
-3.91285
-3.90443
-3.89636
-3.88866
-4.05145
-4.04356
-4.03599
-4.02872
-4.18844
-4.18112
-4.17407
-4.16725
-4.324
-4.31726
-4.31074
-4.30441
-4.45826
-4.45214
-4.44618
-4.44038
-4.59132
-4.58589
-4.58056
-4.57531
-4.72334
-4.71862
-4.71395
-4.70932
-4.85448
-4.85046
-4.84645
-4.84244
-4.98492
-4.98155
-4.97818
-4.97481
-5.11484
-5.11205
-5.10929
-5.10654
-5.24439
-5.24216
-5.23998
-5.23785
-5.3737
-5.37205
-5.37045
-5.36891
-5.50287
-5.50182
-5.50082
-5.49986
-5.63205
-5.6316
-5.63118
-5.63079
0.45852
0.443998
0.406035
0.373685
0.344705
0.318582
0.295043
0.273816
0.254658
0.237449
0.222208
0.20892
0.197461
0.187714
0.179614
0.173099
0.168115
0.164652
0.162735
0.381397
0.327074
0.283457
0.246785
0.215353
0.187809
0.163424
0.141789
0.122567
0.105463
0.0903555
0.0772322
0.0659762
0.0564106
0.0484549
0.0420833
0.0372342
0.033861
0.0319815
0.255224
0.198587
0.152877
0.114699
0.082258
0.0541084
0.0294065
0.0077028
-0.0113634
-0.0282037
-0.043057
-0.0559339
-0.0669298
-0.0762621
-0.0840258
-0.0902172
-0.0949041
-0.0981698
-0.100004
0.110336
0.0584217
0.0144501
-0.0229289
-0.0549531
-0.0827958
-0.107193
-0.128552
-0.147202
-0.163592
-0.178045
-0.190576
-0.201244
-0.210286
-0.217807
-0.223778
-0.228275
-0.231414
-0.23319
-0.0446196
-0.090227
-0.130533
-0.165637
-0.196145
-0.222884
-0.246394
-0.266994
-0.284951
-0.300694
-0.314599
-0.32668
-0.336945
-0.34563
-0.352854
-0.358568
-0.362849
-0.365841
-0.367546
-0.205576
-0.244767
-0.280614
-0.312619
-0.340879
-0.365919
-0.388069
-0.407545
-0.424548
-0.439459
-0.452681
-0.464209
-0.473986
-0.482245
-0.48912
-0.494543
-0.498582
-0.501408
-0.50303
-0.370274
-0.403336
-0.434511
-0.463042
-0.488617
-0.511547
-0.531986
-0.550054
-0.565884
-0.579804
-0.592226
-0.603104
-0.612304
-0.620066
-0.626549
-0.631654
-0.635429
-0.638068
-0.639595
-0.537159
-0.564618
-0.591216
-0.616138
-0.638795
-0.659352
-0.677847
-0.694317
-0.708811
-0.721612
-0.733138
-0.743275
-0.751813
-0.759015
-0.765066
-0.769831
-0.773325
-0.77576
-0.777179
-0.705288
-0.727678
-0.749963
-0.771264
-0.79091
-0.808961
-0.82538
-0.840141
-0.853193
-0.864781
-0.875327
-0.884642
-0.892444
-0.899033
-0.904624
-0.909029
-0.912227
-0.914445
-0.915748
-0.874025
-0.891798
-0.910063
-0.92786
-0.944497
-0.960002
-0.974296
-0.987299
-0.998851
-1.00915
-1.01865
-1.02707
-1.03408
-1.04003
-1.04514
-1.04916
-1.05205
-1.05404
-1.05522
-1.04287
-1.05647
-1.071
-1.08548
-1.09918
-1.11216
-1.12434
-1.13558
-1.14559
-1.15457
-1.16296
-1.17044
-1.17662
-1.1819
-1.18652
-1.19016
-1.19272
-1.19448
-1.19554
-1.2115
-1.22132
-1.23243
-1.24374
-1.25462
-1.26516
-1.27527
-1.28475
-1.29321
-1.30085
-1.30811
-1.31461
-1.31995
-1.32458
-1.32868
-1.33191
-1.33415
-1.33568
-1.33662
-1.37977
-1.3861
-1.39402
-1.40233
-1.41054
-1.41876
-1.42687
-1.4346
-1.44152
-1.44783
-1.45396
-1.45946
-1.46397
-1.46795
-1.47154
-1.47435
-1.47626
-1.47756
-1.47838
-1.54746
-1.55058
-1.55548
-1.56098
-1.56669
-1.57272
-1.57889
-1.58491
-1.59032
-1.59534
-1.60035
-1.60487
-1.60858
-1.61192
-1.615
-1.61737
-1.61895
-1.62004
-1.62075
-1.71436
-1.71452
-1.71659
-1.71946
-1.72286
-1.72682
-1.73114
-1.7355
-1.73946
-1.74324
-1.74717
-1.75074
-1.75366
-1.75639
-1.75895
-1.76088
-1.76214
-1.76304
-1.76365
-1.88025
-1.87768
-1.87712
-1.87757
-1.87883
-1.88085
-1.88341
-1.88619
-1.88877
-1.89138
-1.89428
-1.89693
-1.89912
-1.90126
-1.9033
-1.90479
-1.90574
-1.90646
-1.90698
-2.04491
-2.03987
-2.03686
-2.0351
-2.0344
-2.03462
-2.03554
-2.03683
-2.03811
-2.03966
-2.04159
-2.04336
-2.04485
-2.04642
-2.04794
-2.04901
-2.04967
-2.05024
-2.05068
-2.20817
-2.20086
-2.19563
-2.19189
-2.18941
-2.18797
-2.18737
-2.18726
-2.18738
-2.18796
-2.18897
-2.18991
-2.19075
-2.19178
-2.1928
-2.19346
-2.19387
-2.19429
-2.19466
-2.36991
-2.36048
-2.35329
-2.34778
-2.34368
-2.34074
-2.33875
-2.33739
-2.33647
-2.33616
-2.33631
-2.33649
-2.33673
-2.33724
-2.33778
-2.33806
-2.33824
-2.33854
-2.33885
-2.52991
-2.51864
-2.50974
-2.50266
-2.49709
-2.4928
-2.48957
-2.4871
-2.48529
-2.48418
-2.48352
-2.483
-2.4827
-2.48272
-2.4828
-2.48275
-2.48273
-2.48293
-2.48319
-2.68799
-2.67521
-2.66485
-2.65639
-2.64955
-2.64408
-2.63976
-2.63635
-2.63376
-2.6319
-2.63051
-2.62937
-2.62858
-2.62814
-2.6278
-2.62746
-2.62729
-2.62739
-2.62759
-2.84406
-2.83004
-2.81847
-2.80887
-2.80096
-2.7945
-2.78925
-2.78507
-2.78178
-2.77923
-2.77719
-2.77552
-2.77429
-2.77343
-2.77272
-2.77213
-2.77183
-2.77186
-2.772
-2.99804
-2.98309
-2.97057
-2.96007
-2.9513
-2.94401
-2.93804
-2.93321
-2.9293
-2.92613
-2.92353
-2.92142
-2.9198
-2.91855
-2.91752
-2.91674
-2.91634
-2.91629
-2.91637
-3.14989
-3.1343
-3.12112
-3.10994
-3.1005
-3.09259
-3.08605
-3.08068
-3.07623
-3.07254
-3.06949
-3.06701
-3.06503
-3.06344
-3.06217
-3.06125
-3.06076
-3.06063
-3.06064
-3.29963
-3.28371
-3.2701
-3.25846
-3.24856
-3.2402
-3.23324
-3.22742
-3.22251
-3.21842
-3.21503
-3.21223
-3.20994
-3.20809
-3.20663
-3.20561
-3.20504
-3.20483
-3.20478
-3.44732
-3.43133
-3.41752
-3.40564
-3.39546
-3.38683
-3.37955
-3.37338
-3.36815
-3.36378
-3.36011
-3.35704
-3.35451
-3.35246
-3.35088
-3.34979
-3.34915
-3.34885
-3.34875
-3.59302
-3.57719
-3.56342
-3.55149
-3.54122
-3.53244
-3.52496
-3.51857
-3.51315
-3.50858
-3.5047
-3.50142
-3.49872
-3.49656
-3.49491
-3.49375
-3.49305
-3.49268
-3.49251
-3.73687
-3.72142
-3.70787
-3.69607
-3.68584
-3.67703
-3.66948
-3.66301
-3.65751
-3.65281
-3.64878
-3.64537
-3.64257
-3.64036
-3.63868
-3.63748
-3.63672
-3.63628
-3.63606
-3.87901
-3.86409
-3.85094
-3.8394
-3.82933
-3.82064
-3.81317
-3.80673
-3.80121
-3.79645
-3.79235
-3.78889
-3.78609
-3.78387
-3.78217
-3.78095
-3.78013
-3.77963
-3.77937
-4.01956
-4.00532
-3.99268
-3.98153
-3.97179
-3.96335
-3.95606
-3.94974
-3.94427
-3.93952
-3.93543
-3.93202
-3.92926
-3.92707
-3.92537
-3.92413
-3.92327
-3.92273
-3.92244
-4.15863
-4.14519
-4.13319
-4.12258
-4.11329
-4.10522
-4.09819
-4.09205
-4.08669
-4.08203
-4.07805
-4.07476
-4.07209
-4.06994
-4.06827
-4.06702
-4.06615
-4.06558
-4.06527
-4.29639
-4.28385
-4.27261
-4.26266
-4.25393
-4.24628
-4.23957
-4.23368
-4.22852
-4.22405
-4.22027
-4.21714
-4.21457
-4.21249
-4.21085
-4.20962
-4.20875
-4.20817
-4.20786
-4.43301
-4.42145
-4.41107
-4.40187
-4.39375
-4.38658
-4.38025
-4.37469
-4.36983
-4.36563
-4.36209
-4.35914
-4.3567
-4.35471
-4.35313
-4.35195
-4.35109
-4.35052
-4.35021
-4.56862
-4.55813
-4.54868
-4.54028
-4.53281
-4.52618
-4.52033
-4.51517
-4.51067
-4.50679
-4.50353
-4.50078
-4.49849
-4.49661
-4.49513
-4.494
-4.49318
-4.49264
-4.49234
-4.70335
-4.69397
-4.68551
-4.67794
-4.67119
-4.66519
-4.65987
-4.65518
-4.65109
-4.64757
-4.64459
-4.64206
-4.63994
-4.63821
-4.63684
-4.6358
-4.63504
-4.63453
-4.63425
-4.83724
-4.82904
-4.82162
-4.81495
-4.80899
-4.80366
-4.79893
-4.79475
-4.79111
-4.78798
-4.78529
-4.783
-4.78109
-4.77953
-4.7783
-4.77736
-4.77667
-4.7762
-4.77594
-4.97042
-4.96345
-4.95713
-4.95143
-4.9463
-4.94169
-4.93758
-4.93394
-4.93078
-4.92804
-4.92568
-4.92366
-4.92198
-4.92062
-4.91955
-4.91872
-4.91811
-4.9177
-4.91748
-5.10299
-5.09731
-5.09213
-5.08743
-5.08316
-5.0793
-5.07585
-5.0728
-5.07013
-5.0678
-5.06578
-5.06406
-5.06265
-5.06151
-5.06061
-5.05991
-5.05939
-5.05905
-5.05886
-5.23512
-5.23071
-5.22668
-5.22298
-5.21961
-5.21655
-5.21379
-5.21135
-5.20918
-5.20728
-5.20565
-5.20427
-5.20314
-5.20223
-5.20151
-5.20095
-5.20054
-5.20026
-5.20011
-5.36695
-5.36378
-5.36086
-5.35818
-5.35572
-5.35348
-5.35145
-5.34963
-5.348
-5.34657
-5.34534
-5.34432
-5.34348
-5.34281
-5.34229
-5.34188
-5.34157
-5.34136
-5.34125
-5.49864
-5.49665
-5.49481
-5.49312
-5.49158
-5.49017
-5.48888
-5.4877
-5.48664
-5.48571
-5.48492
-5.48426
-5.48373
-5.48331
-5.48297
-5.48271
-5.48251
-5.48238
-5.48231
-5.63028
-5.62944
-5.62865
-5.62794
-5.62728
-5.62669
-5.62614
-5.62563
-5.62517
-5.62477
-5.62442
-5.62414
-5.62392
-5.62374
-5.62359
-5.62348
-5.6234
-5.62334
-5.62331
1309.29
1297.18
1275.17
1242.86
1199.68
1144.9
1077.41
995.597
897.155
778.909
635.625
464.936
231.113
53.0239
9.25681
3.64888
2.62296
2.2771
2.06263
1.92517
1.83597
1.7834
1.76208
1251.58
1239.49
1217.5
1185.23
1142.09
1087.37
1019.96
938.191
839.744
721.332
577.174
404.623
159.655
16.7816
4.55322
2.68927
2.41554
2.18109
1.98736
1.85656
1.76942
1.71755
1.69649
1195.44
1183.37
1161.45
1129.27
1086.24
1031.66
964.404
882.762
784.338
665.615
519.813
342.454
85.7131
7.9914
2.68532
2.12359
2.15572
2.03932
1.89055
1.77394
1.69136
1.64092
1.62023
1140.85
1128.84
1107.01
1074.97
1032.13
977.782
910.784
829.376
731.078
612.14
464.791
281.089
35.9344
4.04733
2.10283
1.94842
1.97211
1.89668
1.78161
1.68004
1.6029
1.55382
1.53267
1087.83
1075.89
1054.19
1022.35
979.774
925.755
859.133
778.113
680.168
561.367
413.464
225.064
16.8791
2.54422
1.84762
1.8119
1.81603
1.75687
1.6655
1.57759
1.50527
1.45633
1.43423
1036.37
1024.53
1003
971.414
929.191
875.61
809.506
729.095
631.813
513.756
366.821
177.201
8.70558
1.92464
1.69513
1.68066
1.67094
1.62228
1.54652
1.46857
1.39958
1.34872
1.3213
986.505
974.771
953.457
922.189
880.405
827.376
761.955
682.39
586.176
469.582
325.186
138.623
4.60955
1.62086
1.56394
1.55072
1.5355
1.49026
1.42527
1.35533
1.2877
1.23131
1.19145
938.21
926.616
905.562
874.686
833.44
781.091
716.53
638.089
543.374
429.018
288.726
108.414
2.63313
1.4262
1.43378
1.42175
1.40201
1.3622
1.30469
1.23938
1.1718
1.10582
1.02965
0.888488
0.878651
0.862692
0.843264
0.822478
0.801617
0.781448
0.762461
0.744932
0.728987
0.714641
0.701878
0.690737
0.681306
0.673635
0.667697
0.663422
0.660737
0.659605
0.830445
0.820485
0.804263
0.784587
0.763622
0.742652
0.722418
0.703406
0.685874
0.669921
0.655564
0.642799
0.631664
0.622241
0.614576
0.608642
0.604367
0.601684
0.600551
0.773572
0.763196
0.746339
0.726124
0.704772
0.683535
0.663138
0.644058
0.626513
0.610539
0.59615
0.58338
0.572279
0.562892
0.555243
0.549309
0.545033
0.542349
0.541217
0.717975
0.706994
0.688985
0.66784
0.645869
0.624239
0.603609
0.584417
0.56683
0.550819
0.536387
0.523624
0.512586
0.503265
0.495644
0.489708
0.485423
0.482736
0.481604
0.663638
0.65163
0.632003
0.609624
0.586852
0.564739
0.543835
0.524483
0.5068
0.490735
0.476283
0.463547
0.452588
0.443352
0.435775
0.429842
0.425543
0.422847
0.421712
0.610933
0.597469
0.575419
0.551398
0.527657
0.504993
0.483792
0.464242
0.44641
0.430281
0.415845
0.40317
0.392292
0.383143
0.375627
0.369709
0.365398
0.362692
0.361559
0.56043
0.544081
0.518969
0.493072
0.468217
0.444938
0.423421
0.403662
0.385666
0.369471
0.355083
0.342498
0.331703
0.322635
0.315188
0.309304
0.304994
0.302278
0.301138
0.512913
0.491528
0.462449
0.43448
0.408463
0.384519
0.362648
0.342693
0.324574
0.308337
0.294009
0.28153
0.270823
0.261825
0.254446
0.248616
0.24433
0.241615
0.240474
878.305
866.933
846.268
815.969
775.516
724.182
660.927
584.219
491.904
381.067
247.063
76.8095
1.54512
1.24067
1.27024
1.26015
1.23948
1.20202
1.15116
1.09086
1.02279
0.940595
0.750015
784.862
773.93
754.071
724.976
686.183
637.057
576.722
503.947
417.116
314.266
192.955
43.2657
1.04626
0.991222
1.01478
1.0078
0.98719
0.954286
0.909887
0.855007
0.789923
0.711041
0.61683
698.422
688.028
669.154
641.54
604.798
558.423
501.745
433.868
353.735
260.257
152.674
23.9149
0.823234
0.772664
0.773926
0.764638
0.745028
0.716018
0.677208
0.628987
0.572162
0.506194
0.430682
618.859
609.09
591.364
565.471
531.11
487.918
435.433
373.077
300.261
216.554
122.292
12.5036
0.584457
0.548563
0.541103
0.529816
0.511963
0.486718
0.453072
0.411627
0.363289
0.308589
0.24929
545.922
536.84
520.383
496.397
464.663
424.947
376.98
320.447
255.112
180.971
99.0176
6.02449
0.261735
0.311314
0.310047
0.300764
0.285803
0.264225
0.235441
0.200621
0.16019
0.115267
0.0675028
479.255
470.908
455.802
433.839
404.883
368.805
325.487
274.819
216.81
151.721
80.8973
2.59995
0.0156386
0.0798622
0.0847407
0.0777527
0.0654451
0.0474675
0.0235054
-0.00549005
-0.0388049
-0.0754619
-0.114233
418.463
410.877
397.171
377.293
351.177
318.782
280.096
235.152
184.117
127.397
66.5033
0.895895
-0.141797
-0.131534
-0.13206
-0.139386
-0.149574
-0.164119
-0.183649
-0.207364
-0.234469
-0.264215
-0.295696
363.127
356.31
344.016
326.234
302.944
274.174
239.99
200.515
156.004
106.915
54.8042
0.00865487
-0.32805
-0.340485
-0.344504
-0.352075
-0.360141
-0.37142
-0.386945
-0.405761
-0.42735
-0.451215
-0.476625
312.78
306.731
295.838
280.114
259.581
234.313
204.422
170.09
131.609
89.438
45.0809
-0.482082
-0.557251
-0.554336
-0.555694
-0.561904
-0.567296
-0.575358
-0.586939
-0.601278
-0.617986
-0.6368
-0.657046
266.934
261.645
252.116
238.384
220.504
198.569
172.726
143.186
110.246
74.3343
36.865
-0.675529
-0.752998
-0.764804
-0.765783
-0.769575
-0.771746
-0.776434
-0.784212
-0.794405
-0.806864
-0.821146
-0.836858
225.096
220.529
212.307
200.484
185.122
166.33
144.277
119.181
91.3272
61.0957
29.7563
-0.967632
-0.977149
-0.979649
-0.975864
-0.975371
-0.974065
-0.975256
-0.979411
-0.985713
-0.994085
-1.00424
-1.01586
186.75
182.874
175.897
165.876
152.884
137.041
118.525
97.5494
74.3771
49.33
23.5041
-1.26979
-1.21495
-1.19625
-1.18439
-1.17908
-1.17423
-1.17212
-1.17275
-1.17534
-1.17972
-1.18607
-1.19379
151.423
148.197
142.394
134.067
123.293
110.206
94.9794
77.8209
58.9783
38.7208
17.957
-1.48185
-1.42282
-1.40226
-1.38798
-1.37983
-1.37213
-1.36707
-1.3642
-1.36327
-1.364
-1.36649
-1.37047
118.679
116.035
111.318
104.563
95.8587
85.3311
73.1459
59.5269
44.7093
28.9266
12.9213
-1.65435
-1.61055
-1.59785
-1.58638
-1.57761
-1.56809
-1.56032
-1.55422
-1.54961
-1.54672
-1.54556
-1.54593
87.9051
85.8727
82.1697
76.875
70.0779
61.9073
52.5367
42.1907
31.121
19.5974
8.18905
-1.82126
-1.79333
-1.78905
-1.78235
-1.77402
-1.76303
-1.75232
-1.74285
-1.73459
-1.72793
-1.72327
-1.72013
58.6675
57.1266
54.3587
50.4222
45.3759
39.3601
32.5478
25.1766
17.5573
10.0823
3.32304
-1.96871
-1.97368
-1.98052
-1.98014
-1.97191
-1.95836
-1.94396
-1.93036
-1.91813
-1.90779
-1.89952
-1.89289
32.0351
30.9385
29.0553
26.3794
22.9789
18.9482
14.4577
9.75196
5.22682
1.47836
-0.789796
-2.18408
-2.15019
-2.17951
-2.18586
-2.17472
-2.15552
-2.13568
-2.11701
-2.10032
-2.08601
-2.07406
-2.06405
0.0291365
-0.537151
-1.5924
-3.16094
-5.12559
-7.45696
-10.0052
-12.5466
-14.7171
-15.5933
-13.1457
-2.36907
-2.31408
-2.40889
-2.40942
-2.38544
-2.35536
-2.32722
-2.30223
-2.28067
-2.26228
-2.24663
-2.23342
4.93621
5.07381
4.91557
4.86479
4.74363
4.62905
4.51961
4.42565
4.43141
4.62279
4.39255
-1.05487
-2.76717
-2.73325
-2.6609
-2.60325
-2.55578
-2.51699
-2.48503
-2.45827
-2.43579
-2.41679
-2.40064
-3.98982
-3.99755
-3.98435
-3.97224
-3.95409
-3.93254
-3.90711
-3.87868
-3.85177
-3.82792
-3.86638
-4.22016
-3.92483
-3.13067
-2.92024
-2.81767
-2.75115
-2.70208
-2.66342
-2.63202
-2.60596
-2.58396
-2.56527
-4.02645
-4.01938
-4.00977
-3.99622
-3.97739
-3.95405
-3.92634
-3.89458
-3.85794
-3.8238
-3.7902
-3.81273
-3.60044
-3.30262
-3.12055
-3.00918
-2.93414
-2.87894
-2.83585
-2.80098
-2.77209
-2.74779
-2.72712
-4.04863
-4.04451
-4.03567
-4.02096
-4.00121
-3.97697
-3.94746
-3.91231
-3.87114
-3.82157
-3.76635
-3.69124
-3.54683
-3.39109
-3.26774
-3.17355
-3.10188
-3.04596
-3.00113
-2.96444
-2.93392
-2.90805
-2.88607
-4.09348
-4.08757
-4.077
-4.06119
-4.0411
-4.01524
-3.98383
-3.94637
-3.90214
-3.85
-3.78609
-3.70562
-3.60136
-3.4954
-3.40097
-3.32189
-3.25693
-3.20361
-3.15943
-3.12251
-3.09135
-3.06478
-3.04207
-4.14378
-4.13837
-4.12814
-4.11326
-4.0928
-4.06742
-4.03618
-3.9986
-3.95441
-3.90207
-3.84059
-3.76767
-3.68568
-3.60383
-3.52793
-3.46088
-3.40313
-3.35373
-3.31149
-3.27548
-3.24463
-3.218
-3.19504
-4.19783
-4.19263
-4.1829
-4.16833
-4.14914
-4.12457
-4.0944
-4.05855
-4.01636
-3.9674
-3.91143
-3.84853
-3.78163
-3.71491
-3.65187
-3.59431
-3.54299
-3.49774
-3.45826
-3.42393
-3.39398
-3.36782
-3.34506
-4.25691
-4.25185
-4.24268
-4.22928
-4.21094
-4.1878
-4.15938
-4.12582
-4.08703
-4.04265
-3.99316
-3.93935
-3.88321
-3.82737
-3.77379
-3.72381
-3.67819
-3.63714
-3.60064
-3.56833
-3.53978
-3.51449
-3.49232
-4.32108
-4.31664
-4.30805
-4.2954
-4.27856
-4.25699
-4.23105
-4.20052
-4.16521
-4.12567
-4.08222
-4.03582
-3.98799
-3.9404
-3.8942
-3.85055
-3.81
-3.7729
-3.73939
-3.70934
-3.68242
-3.65834
-3.63702
-4.3902
-4.38569
-4.378
-4.36642
-4.35105
-4.33171
-4.30818
-4.28062
-4.24913
-4.2141
-4.17611
-4.13598
-4.09487
-4.05381
-4.01368
-3.97533
-3.93928
-3.90588
-3.8753
-3.84751
-3.82234
-3.79965
-3.77936
-4.46314
-4.45943
-4.45222
-4.44195
-4.42804
-4.41055
-4.38966
-4.36517
-4.33731
-4.3066
-4.27351
-4.23875
-4.20325
-4.16758
-4.13251
-4.0987
-4.06663
-4.03661
-4.00884
-3.9833
-3.95993
-3.93866
-3.91952
-4.54044
-4.53683
-4.53051
-4.52098
-4.50854
-4.49312
-4.47457
-4.45304
-4.42884
-4.40212
-4.37337
-4.34342
-4.31263
-4.28153
-4.25081
-4.22095
-4.1924
-4.16548
-4.14034
-4.11698
-4.09541
-4.07566
-4.05774
-4.62098
-4.6178
-4.6119
-4.60349
-4.59239
-4.5787
-4.56252
-4.54387
-4.52284
-4.49973
-4.4751
-4.44924
-4.42247
-4.39538
-4.36847
-4.34212
-4.31674
-4.29264
-4.26995
-4.24872
-4.22902
-4.21084
-4.19426
-4.70465
-4.70173
-4.69649
-4.6889
-4.67913
-4.66717
-4.65304
-4.63684