/*--------------------------------*- C++ -*----------------------------------*\
| =========                 |                                                 |
| \\      /  F ield         | OpenFOAM: The Open Source CFD Toolbox           |
|  \\    /   O peration     | Version:  v1912                                 |
|   \\  /    A nd           | Website:  www.openfoam.com                      |
|    \\/     M anipulation  |                                                 |
\*---------------------------------------------------------------------------*/
FoamFile
{
    version     2.0;
    format      ascii;
    class       volScalarField;
    location    "0.05";
    object      p_rgh;
}
// * * * * * * * * * * * * * * * * * * * * * * * * * * * * * * * * * * * * * //

dimensions      [1 -1 -2 0 0 0 0];


internalField   nonuniform List<scalar> 
9072
(
1326.59
1319.18
1302.15
1275.05
1237.39
1188.51
1127.55
1053.14
963.335
855.413
725.738
569.128
371.053
133.933
24.3948
5.68682
2.99354
2.44566
2.17244
2.0013
1.89024
1.82022
1.78378
1328.52
1320.34
1303.32
1276.26
1238.64
1189.81
1128.91
1054.57
964.796
856.795
726.738
569.036
363.706
103.84
11.6081
5.0318
2.94702
2.39658
2.1499
1.98919
1.88182
1.81294
1.77697
1332
1323.06
1306.09
1279.1
1241.58
1192.88
1132.14
1057.95
968.256
860.144
729.316
569.387
348.435
52.9597
6.78926
3.06224
2.39525
2.25702
2.09522
1.96024
1.861
1.79467
1.75945
1337.05
1327.35
1310.46
1283.59
1246.23
1197.74
1137.25
1063.31
973.817
865.685
734.131
572.198
330.239
20.8439
4.31631
2.45155
2.20368
2.14112
2.03082
1.91936
1.82944
1.76606
1.73108
1343.65
1333.21
1316.43
1289.72
1252.59
1204.4
1144.27
1070.71
981.599
873.731
741.962
579.587
310.634
11.785
3.04916
2.18197
2.08383
2.04567
1.9624
1.87024
1.78911
1.7277
1.69192
1351.85
1340.66
1324
1297.51
1260.68
1212.89
1153.23
1080.23
991.767
884.579
753.482
592.98
295.496
7.54953
2.44246
2.03848
1.99317
1.96107
1.89494
1.81597
1.74138
1.68046
1.64068
1361.61
1349.69
1333.2
1306.97
1270.52
1223.22
1164.18
1091.94
1004.42
898.453
769.075
612.363
279.558
5.61643
2.15585
1.94128
1.91538
1.88466
1.8269
1.7583
1.68854
1.62558
1.5769
1372.89
1360.3
1344.02
1318.11
1282.13
1235.44
1177.15
1105.9
1019.67
915.5
788.834
637.846
264.67
4.57657
2.00082
1.86191
1.84135
1.81151
1.76169
1.69936
1.63223
1.5655
1.49894
0.905325
0.89921
0.885985
0.867977
0.847659
0.826716
0.806125
0.7865
0.768218
0.751473
0.73633
0.722777
0.710814
0.700517
0.691965
0.685168
0.680071
0.676599
0.674694
0.906683
0.899995
0.886547
0.868271
0.84774
0.826658
0.805981
0.786311
0.768019
0.751271
0.736117
0.722555
0.710595
0.700307
0.691762
0.68497
0.679875
0.676403
0.674499
0.909184
0.901832
0.8878
0.86892
0.847924
0.826519
0.805628
0.785846
0.767521
0.750761
0.735577
0.721991
0.71005
0.699801
0.691283
0.684496
0.6794
0.675927
0.674024
0.912632
0.904956
0.889878
0.869918
0.848154
0.826255
0.805056
0.785106
0.766713
0.74992
0.734692
0.721082
0.709179
0.699003
0.690533
0.683757
0.678653
0.675173
0.673269
0.916798
0.909197
0.892533
0.87112
0.848348
0.825823
0.804259
0.784101
0.765583
0.748718
0.733452
0.719843
0.707997
0.697909
0.689507
0.682753
0.677639
0.674147
0.672237
0.920753
0.915127
0.895942
0.872474
0.848432
0.825169
0.803204
0.782813
0.764119
0.747143
0.731857
0.718291
0.706516
0.696517
0.688194
0.681477
0.67636
0.672855
0.670941
0.922974
0.922659
0.899693
0.873823
0.848339
0.824228
0.801826
0.78119
0.762308
0.745209
0.729919
0.716433
0.704746
0.694827
0.686582
0.679918
0.674817
0.671304
0.669382
0.915702
0.932718
0.903669
0.874966
0.847948
0.82295
0.80006
0.779166
0.760129
0.742941
0.727663
0.71427
0.702684
0.692841
0.684665
0.678065
0.673003
0.669501
0.667576
1397.58
1375.93
1359.95
1334.52
1299.22
1253.43
1196.3
1126.54
1042.34
941.093
818.883
675.167
236.59
3.54666
1.85119
1.77133
1.754
1.72503
1.68008
1.62423
1.55996
1.48718
1.38462
1432.78
1407.86
1392.5
1368.07
1334.19
1290.32
1235.72
1169.34
1089.77
995.112
882.731
753.707
176.336
2.44508
1.67111
1.64195
1.62643
1.59959
1.56084
1.51104
1.45122
1.37998
1.29227
1474.92
1446.83
1432.22
1409.02
1376.9
1335.41
1283.98
1221.83
1147.96
1061.21
959.995
846.291
125.27
1.87798
1.53762
1.52379
1.50854
1.48429
1.45041
1.40676
1.3542
1.29294
1.22204
1523.8
1492.71
1478.98
1457.21
1427.12
1388.39
1340.62
1283.28
1215.76
1137.47
1047.57
948.137
83.1842
1.59124
1.42485
1.41432
1.39942
1.37813
1.34869
1.31099
1.26606
1.21441
1.15709
1579.13
1545.24
1532.49
1512.29
1484.46
1448.77
1404.96
1352.75
1291.84
1222.02
1142.94
1056.34
51.2322
1.39023
1.31478
1.30932
1.29691
1.2789
1.25361
1.2217
1.18402
1.14113
1.09457
1640.52
1604.06
1592.35
1573.83
1548.39
1515.89
1476.21
1429.22
1374.87
1313.22
1244.19
1169.03
28.5983
1.24172
1.21236
1.21037
1.20034
1.18539
1.1643
1.13776
1.10647
1.07135
1.03348
1707.57
1668.77
1658.13
1641.35
1618.36
1589.11
1553.57
1511.74
1463.72
1409.73
1349.86
1284.83
14.1842
1.1432
1.12243
1.11819
1.10923
1.09714
1.08003
1.05831
1.0328
1.00427
0.973533
1779.84
1738.93
1729.37
1714.34
1693.8
1667.77
1636.28
1599.43
1557.39
1510.48
1458.87
1402.77
6.48247
1.0521
1.03643
1.03043
1.0226
1.01328
0.999819
0.982539
0.962284
0.939499
0.914723
1856.85
1814.08
1805.61
1792.3
1774.17
1751.25
1723.66
1691.52
1655.07
1614.64
1570.42
1522.22
2.73622
0.953211
0.949597
0.945008
0.939218
0.932855
0.92294
0.909944
0.894364
0.876568
0.856913
1938.12
1893.74
1886.32
1874.69
1858.87
1838.95
1815.04
1787.32
1756.04
1721.52
1683.96
1642.85
1.66776
0.867629
0.86405
0.86115
0.858353
0.855241
0.848908
0.839914
0.828539
0.815104
0.800063
2023.15
1977.38
1970.98
1960.95
1947.35
1930.26
1909.81
1886.2
1859.69
1830.57
1799.01
1764.25
1.17444
0.773179
0.777028
0.778436
0.779585
0.779835
0.777063
0.771821
0.764443
0.75517
0.74419
2111.43
2064.51
2059.08
2050.57
2039.05
2024.62
2007.41
1987.64
1965.53
1941.36
1915.24
1886.27
0.891829
0.673199
0.690369
0.697751
0.702903
0.706538
0.70711
0.705523
0.702001
0.696652
0.689493
2202.53
2154.64
2150.12
2143.05
2133.48
2121.53
2107.35
2091.13
2073.09
2053.5
2032.42
2008.87
0.750864
0.591463
0.61066
0.620758
0.628789
0.63522
0.639101
0.640988
0.641076
0.639477
0.636146
2295.89
2247.31
2243.63
2237.88
2230.14
2220.51
2209.13
2196.19
2181.95
2166.61
2150.25
2131.95
0.632706
0.524527
0.538257
0.547607
0.557034
0.56569
0.572609
0.577988
0.581731
0.583792
0.584074
2391.1
2342
2339.11
2334.61
2328.55
2321.05
2312.25
2302.36
2291.63
2280.29
2268.48
2255.41
0.53176
0.462678
0.469211
0.476209
0.486315
0.497358
0.507427
0.516345
0.523859
0.529541
0.533332
2487.83
2438.13
2435.97
2432.61
2428.1
2422.55
2416.1
2408.97
2401.43
2393.81
2386.43
2378.99
0.468624
0.401942
0.39891
0.403076
0.414677
0.428969
0.443054
0.456016
0.467381
0.476685
0.484054
2583.08
2536.37
2534.87
2532.56
2529.48
2525.71
2521.38
2516.68
2511.93
2507.62
2504.27
2501.06
0.443131
0.338381
0.319755
0.323455
0.339845
0.359745
0.37913
0.396909
0.412422
0.425514
0.436446
2616.42
2620.93
2619.87
2618.25
2616.05
2613.35
2610.24
2606.89
2603.59
2600.98
2599.57
2575.55
0.424029
0.246938
0.216139
0.231437
0.26014
0.289545
0.31616
0.339452
0.359365
0.376352
0.390735
9.04483
1338.51
1324.26
1302.21
1273.18
1234.1
1186.73
1134.19
1077.93
1019.92
907.377
310.537
42.0153
-0.00365046
0.0620348
0.12479
0.177406
0.220274
0.255388
0.284612
0.309115
0.329783
0.347283
-1.07125
-1.11454
-1.10939
-1.09851
-1.08277
-1.06305
-1.03959
-1.01255
-0.983564
-0.957881
-0.955985
-1.07384
10.9175
-0.512727
-0.120501
0.0186755
0.0993315
0.155862
0.199171
0.233918
0.262454
0.286355
0.306623
-0.971084
-1.01681
-1.00851
-0.99744
-0.981027
-0.96014
-0.934657
-0.905119
-0.870888
-0.834612
-0.799226
-0.794039
-0.694331
-0.424688
-0.193431
-0.0527018
0.0376586
0.101397
0.149874
0.188505
0.220179
0.246625
0.269029
-0.876835
-0.916754
-0.910332
-0.898002
-0.880771
-0.85867
-0.831738
-0.79918
-0.761284
-0.71569
-0.663722
-0.602851
-0.495594
-0.333965
-0.193952
-0.0861296
-0.00412763
0.0589373
0.108879
0.149357
0.182725
0.210782
0.234646
-0.800653
-0.834835
-0.82638
-0.813167
-0.795267
-0.77234
-0.743797
-0.709486
-0.668682
-0.620922
-0.563221
-0.492501
-0.398977
-0.290981
-0.189846
-0.103121
-0.031335
0.0274598
0.0759479
0.11627
0.150147
0.178897
0.20347
-0.727013
-0.759972
-0.752175
-0.73965
-0.722051
-0.699152
-0.671026
-0.636545
-0.5958
-0.547695
-0.490959
-0.424068
-0.345586
-0.26262
-0.183265
-0.11158
-0.0492461
0.00416794
0.0498615
0.0888716
0.122178
0.150799
0.17555
-0.658367
-0.688919
-0.681474
-0.669369
-0.652553
-0.63073
-0.603319
-0.570417
-0.53143
-0.485923
-0.433482
-0.373905
-0.308468
-0.241156
-0.175954
-0.1155
-0.0610425
-0.0127786
0.0295188
0.0663375
0.0983824
0.126371
0.150798
-0.594716
-0.622842
-0.61575
-0.604596
-0.588617
-0.567995
-0.542209
-0.511165
-0.475125
-0.43345
-0.386506
-0.334659
-0.279379
-0.223089
-0.168165
-0.116259
-0.0683874
-0.0250688
0.0136925
0.0480437
0.0784132
0.105288
0.128993
-0.536173
-0.562128
-0.55562
-0.54499
-0.530333
-0.511103
-0.48736
-0.459144
-0.426215
-0.388728
-0.347178
-0.302083
-0.254751
-0.206861
-0.159824
-0.11478
-0.0726422
-0.0337812
0.00153353
0.0332689
0.0617286
0.0871843
0.109873
-0.481705
-0.505958
-0.499868
-0.490252
-0.47682
-0.459488
-0.438022
-0.412499
-0.382925
-0.349607
-0.312991
-0.273834
-0.233039
-0.191863
-0.151146
-0.11182
-0.0745749
-0.0398049
-0.00781991
0.0213576
0.0478108
0.0717216
0.0932144
-0.431958
-0.454079
-0.448617
-0.43991
-0.427836
-0.412102
-0.392928
-0.370251
-0.344003
-0.31466
-0.282726
-0.248653
-0.213444
-0.177785
-0.142307
-0.107804
-0.0748109
-0.0437374
-0.0148262
0.0118205
0.0362643
0.0585878
0.0787756
-0.385477
-0.406185
-0.401232
-0.393298
-0.382313
-0.368402
-0.351417
-0.331334
-0.308455
-0.282981
-0.255124
-0.225691
-0.195299
-0.164258
-0.133272
-0.102932
-0.0736793
-0.0459081
-0.0198748
0.00436962
0.0268471
0.0474938
0.066328
-0.342566
-0.361689
-0.357167
-0.350027
-0.34027
-0.327858
-0.312913
-0.295501
-0.275653
-0.2535
-0.229561
-0.204313
-0.17793
-0.150926
-0.123875
-0.0971951
-0.0712803
-0.0465121
-0.0231107
-0.00114393
0.0193271
0.0382637
0.0556508
-0.302242
-0.320311
-0.316203
-0.309774
-0.301081
-0.290224
-0.277175
-0.261988
-0.244802
-0.225872
-0.205419
-0.183573
-0.160712
-0.137317
-0.113759
-0.0903868
-0.067554
-0.045574
-0.0246659
-0.00494725
0.0135024
0.0306529
0.0464762
-0.26542
-0.281858
-0.2782
-0.272519
-0.264893
-0.255342
-0.243939
-0.230789
-0.216028
-0.199732
-0.181992
-0.163093
-0.143395
-0.123201
-0.102785
-0.0824514
-0.0625264
-0.0432359
-0.0247605
-0.00727446
0.00913919
0.0244543
0.0386619
-0.231643
-0.246721
-0.243493
-0.238468
-0.23172
-0.223329
-0.213353
-0.201872
-0.188951
-0.174703
-0.159339
-0.143081
-0.126142
-0.108756
-0.0911602
-0.0736502
-0.0564682
-0.039751
-0.0236539
-0.00837677
0.00601766
0.0195184
0.0320901
-0.200692
-0.214662
-0.211764
-0.207281
-0.201273
-0.193795
-0.184944
-0.174801
-0.163476
-0.151139
-0.137926
-0.123963
-0.10943
-0.0945425
-0.0795396
-0.0646272
-0.0499308
-0.0355959
-0.0217703
-0.00858471
0.00388764
0.0156234
0.0265756
-0.171272
-0.184772
-0.18224
-0.17828
-0.172959
-0.166375
-0.158615
-0.149783
-0.140006
-0.12939
-0.118047
-0.106122
-0.0937822
-0.081207
-0.0685488
-0.0559138
-0.0434366
-0.0312719
-0.0195183
-0.00823702
0.00246131
0.0125204
0.0219064
-0.142774
-0.156005
-0.153849
-0.150496
-0.145978
-0.140361
-0.13374
-0.126216
-0.117886
-0.108869
-0.0993036
-0.0893252
-0.0790508
-0.0685846
-0.0580165
-0.0474689
-0.0370799
-0.0269306
-0.0170687
-0.00756561
0.00146613
0.00994596
0.017853
-0.115484
-0.128177
-0.126394
-0.123607
-0.119863
-0.115212
-0.109712
-0.103455
-0.0965557
-0.0891311
-0.0812859
-0.0731149
-0.0647136
-0.0561742
-0.0475996
-0.0390899
-0.0307041
-0.0224644
-0.0144167
-0.00662152
0.000766319
0.00772706
0.0142367
-0.0893931
-0.101721
-0.100294
-0.0980796
-0.0950873
-0.0913462
-0.0869112
-0.0818653
-0.0763032
-0.0703137
-0.063988
-0.0574298
-0.0507471
-0.0440371
-0.0373628
-0.0307529
-0.0242225
-0.0177977
-0.011526
-0.00545468
0.000347248
0.00581832
0.010961
-0.063793
-0.0761399
-0.0750935
-0.073411
-0.0711253
-0.0682745
-0.0648952
-0.0610348
-0.0567602
-0.0521544
-0.0473126
-0.0423417
-0.037335
-0.0323551
-0.0274196
-0.0225378
-0.0177305
-0.0130338
-0.00847285
-0.00406128
0.000169681
0.00416938
0.00794469
-0.0385991
-0.0507732
-0.0499942
-0.0487837
-0.047174
-0.0452006
-0.0428919
-0.0402761
-0.037394
-0.034294
-0.031036
-0.027692
-0.0243294
-0.0209921
-0.0177031
-0.0144777
-0.0113361
-0.00829973
-0.00537857
-0.00256782
0.000124493
0.00266804
0.00507639
-0.0131027
-0.0261119
-0.025658
-0.024944
-0.0240011
-0.0228558
-0.0215314
-0.0200529
-0.0184501
-0.0167555
-0.0150023
-0.0132232
-0.011456
-0.0097313
-0.00807121
-0.00648888
-0.00499333
-0.00359153
-0.00228511
-0.00106149
0.00010234
0.00119303
0.00222864
1.05749
1.06471
1.05525
1.02096
1.19957
1.1402
1.09376
1.05374
1.15369
1.11616
1.0806
1.04772
1.10461
1.07591
1.04827
1.02175
1.05258
1.02979
1.00774
0.986352
0.99945
0.98107
0.963215
0.945759
0.945949
0.931112
0.916596
0.902228
0.89247
0.880502
0.868724
0.857006
0.839108
0.829526
0.820114
0.810824
0.786108
0.778609
0.771415
0.764373
0.733814
0.72833
0.723167
0.718136
0.682559
0.67899
0.67565
0.672383
0.632466
0.630612
0.62893
0.62725
0.583484
0.583226
0.583047
0.582829
0.535709
0.536956
0.53819
0.539344
0.489328
0.492008
0.494593
0.497038
0.444512
0.448587
0.452477
0.456126
0.401429
0.40686
0.412008
0.416752
0.360424
0.367089
0.373294
0.37898
0.321826
0.32948
0.336552
0.343065
0.285809
0.294205
0.301983
0.309231
0.252485
0.261442
0.269804
0.277624
0.221973
0.231331
0.240091
0.248309
0.194333
0.203871
0.212846
0.221311
0.169481
0.179012
0.188037
0.196603
0.147267
0.15666
0.16561
0.174132
0.127526
0.136672
0.145438
0.153812
0.110081
0.118896
0.127387
0.13549
0.0947665
0.103181
0.111252
0.118959
0.081359
0.0892539
0.0968162
0.104089
0.0695678
0.0768868
0.0839382
0.0907569
0.0592009
0.0659409
0.0724635
0.0787909
0.0501396
0.0562545
0.0622116
0.0680165
0.0422669
0.0476988
0.0530363
0.0582795
0.0354432
0.0401627
0.044834
0.0494699
0.0294965
0.0335138
0.0375178
0.0415273
0.0242477
0.0276206
0.0309864
0.0343603
0.0195241
0.022314
0.0250767
0.0278185
0.0151668
0.0173936
0.0195791
0.0217119
0.0110566
0.0127028
0.0143055
0.0158469
0.0070784
0.008124
0.0091264
0.0100842
0.00309845
0.00354318
0.00395881
0.00435258
0.960689
0.946167
0.908203
0.875853
0.846873
0.820751
0.797211
0.775985
0.756826
0.739618
0.724377
0.711088
0.69963
0.689882
0.681782
0.675268
0.670283
0.66682
0.664904
1.00876
0.954437
0.910821
0.874148
0.842716
0.815172
0.790787
0.769153
0.749931
0.732826
0.717719
0.704595
0.693339
0.683774
0.675818
0.669447
0.664597
0.661224
0.659345
1.00778
0.951144
0.905435
0.867257
0.834815
0.806666
0.781964
0.76026
0.741194
0.724354
0.709501
0.696624
0.685628
0.676295
0.668532
0.66234
0.657653
0.654388
0.652554
0.988088
0.936173
0.892202
0.854823
0.822799
0.794956
0.770559
0.7492
0.730549
0.71416
0.699707
0.687176
0.676507
0.667466
0.659945
0.653974
0.649477
0.646338
0.644562
0.958329
0.912721
0.872415
0.837311
0.806803
0.780064
0.756554
0.735954
0.717997
0.702254
0.688349
0.676268
0.666003
0.657318
0.650095
0.644381
0.6401
0.637108
0.635402
0.922569
0.883378
0.847531
0.815526
0.787266
0.762226
0.740076
0.7206
0.703597
0.688686
0.675464
0.663936
0.654159
0.6459
0.639025
0.633602
0.629563
0.626738
0.625115
0.883066
0.850004
0.818829
0.790298
0.764724
0.741794
0.721354
0.703286
0.687456
0.673536
0.661115
0.650237
0.641037
0.633274
0.626791
0.621687
0.617911
0.615273
0.613746
0.841367
0.813908
0.787309
0.762387
0.73973
0.719174
0.700678
0.684209
0.669715
0.656914
0.645388
0.635251
0.626713
0.619511
0.613459
0.608695
0.6052
0.602766
0.601347
0.798433
0.776042
0.753758
0.732457
0.712811
0.69476
0.678341
0.66358
0.650527
0.63894
0.628394
0.619079
0.611277
0.604688
0.599097
0.594692
0.591494
0.589276
0.587973
0.754892
0.737118
0.718853
0.701056
0.684419
0.668914
0.65462
0.641617
0.630066
0.619762
0.610267
0.601845
0.594835
0.58889
0.58378
0.579751
0.576863
0.574872
0.573692
0.711244
0.69764
0.683109
0.668635
0.654934
0.641954
0.629772
0.618535
0.60852
0.599542
0.591149
0.583676
0.577493
0.572208
0.567593
0.563956
0.561388
0.559627
0.558573
0.667803
0.657985
0.64688
0.635567
0.624689
0.614149
0.604033
0.594558
0.586093
0.578455
0.571192
0.564699
0.559355
0.554731
0.550622
0.547393
0.545152
0.543622
0.542691
0.624737
0.618403
0.610485
0.602167
0.593966
0.585746
0.577634
0.569905
0.562983
0.556674
0.550544
0.545041
0.540528
0.536553
0.532958
0.530152
0.528244
0.526937
0.526122
0.58224
0.579113
0.574212
0.568713
0.563006
0.556978
0.550803
0.544786
0.539373
0.534357
0.529346
0.524823
0.521118
0.517777
0.514699
0.512327
0.510749
0.509653
0.508945
0.540529
0.540375
0.538303
0.53543
0.532032
0.528072
0.523752
0.519391
0.515434
0.511655
0.507725
0.504157
0.501229
0.498502
0.495944
0.49401
0.492753
0.491854
0.491245
0.499841
0.502407
0.50297
0.50252
0.501257
0.499238
0.496673
0.493895
0.491321
0.488703
0.485803
0.483154
0.480966
0.47883
0.476791
0.475296
0.474346
0.473626
0.473104
0.460376
0.46541
0.46842
0.470181
0.470879
0.470662
0.469739
0.468456
0.467169
0.46562
0.463693
0.461921
0.460432
0.458862
0.457338
0.456271
0.455608
0.455047
0.454601
0.422303
0.42962
0.434847
0.438586
0.441072
0.442509
0.443108
0.443215
0.443097
0.442521
0.441509
0.440565
0.439727
0.4387
0.437679
0.437018
0.436613
0.436192
0.435815
0.38576
0.395189
0.402387
0.407889
0.411998
0.414935
0.416922
0.418287
0.419204
0.41951
0.419359
0.419185
0.418945
0.418434
0.417896
0.417612
0.417432
0.417132
0.416818
0.350958
0.362227
0.371129
0.378209
0.383782
0.388065
0.391299
0.393764
0.395578
0.39669
0.397344
0.397868
0.398172
0.39815
0.398067
0.398121
0.398134
0.397937
0.397681
0.31807
0.330856
0.341217
0.349674
0.356517
0.36198
0.366307
0.369712
0.372305
0.374167
0.375553
0.376693
0.377484
0.377922
0.378259
0.378605
0.378777
0.37867
0.378471
0.28719
0.301205
0.31278
0.322382
0.330286
0.336753
0.341996
0.346181
0.349466
0.352017
0.354061
0.355726
0.356956
0.35782
0.358531
0.359116
0.359417
0.359391
0.359252
0.258408
0.273356
0.285876
0.296376
0.305144
0.312433
0.318406
0.323235
0.327143
0.330313
0.332911
0.335021
0.336647
0.337897
0.338923
0.339699
0.340103
0.340156
0.340076
0.23175
0.247335
0.260523
0.271696
0.281136
0.289051
0.295587
0.300958
0.305413
0.309104
0.312146
0.31463
0.316611
0.318195
0.319471
0.320392
0.320883
0.321014
0.320995
0.207203
0.223122
0.236732
0.24837
0.258278
0.266633
0.273594
0.279416
0.284321
0.288413
0.291803
0.294607
0.296894
0.298745
0.300204
0.301229
0.301798
0.302009
0.302052
0.184707
0.200703
0.214507
0.226393
0.236569
0.245202
0.252479
0.258649
0.263878
0.268254
0.271918
0.274991
0.277524
0.279566
0.281145
0.282245
0.282883
0.283176
0.283281
0.164203
0.180031
0.193803
0.20573
0.216003
0.224788
0.232268
0.238655
0.244077
0.248646
0.252523
0.255805
0.25851
0.260667
0.262317
0.26347
0.264176
0.264546
0.264711
0.145552
0.161003
0.174548
0.186346
0.196582
0.205393
0.21294
0.219406
0.224915
0.22961
0.23364
0.237054
0.239847
0.242058
0.243742
0.244938
0.245704
0.246143
0.246361
0.128605
0.143521
0.156677
0.168214
0.178281
0.186975
0.19445
0.200882
0.206401
0.211161
0.215268
0.218724
0.22153
0.223746
0.225443
0.22667
0.227488
0.227985
0.228244
0.113254
0.127492
0.140129
0.151277
0.161024
0.16946
0.176752
0.183069
0.188541
0.193295
0.197385
0.200795
0.203553
0.205744
0.207438
0.208684
0.209539
0.210079
0.210367
0.099374
0.112812
0.124812
0.135429
0.144714
0.152786
0.159821
0.165961
0.171316
0.175975
0.179952
0.183245
0.185917
0.188062
0.189739
0.190986
0.191861
0.192428
0.192733
0.0868083
0.0993469
0.11059
0.120544
0.129271
0.136917
0.143634
0.149526
0.154679
0.159149
0.162935
0.166066
0.168629
0.170709
0.172348
0.173577
0.174451
0.175027
0.175339
0.0753902
0.086944
0.0973234
0.106526
0.114644
0.121815
0.128142
0.133703
0.138569
0.142769
0.14631
0.149254
0.151693
0.153686
0.155261
0.156449
0.157302
0.157872
0.158183
0.0649705
0.0754662
0.0849071
0.0933141
0.100783
0.107408
0.113263
0.118418
0.122925
0.126797
0.130065
0.13281
0.135104
0.136982
0.138466
0.139592
0.140407
0.140954
0.141254
0.0554391
0.06482
0.0732775
0.0808454
0.0875975
0.0936
0.0989173
0.103608
0.107702
0.111213
0.114194
0.116722
0.118843
0.120576
0.121944
0.122988
0.123749
0.124261
0.124541
0.0467277
0.0549342
0.0623554
0.0690188
0.0749836
0.0803078
0.0850443
0.0892256
0.0928662
0.0959966
0.098679
0.100968
0.102885
0.104444
0.105673
0.106615
0.107307
0.107773
0.108029
0.0387468
0.0457129
0.0520332
0.0577347
0.0628679
0.0674758
0.0715911
0.0752244
0.0783882
0.0811254
0.0834895
0.0855083
0.0871893
0.0885493
0.089621
0.0904459
0.0910553
0.0914664
0.0916909
0.0313684
0.0370517
0.0422315
0.0469371
0.0512056
0.0550607
0.0585133
0.0615659
0.0642375
0.0665673
0.0685848
0.070298
0.0717145
0.0728563
0.0737571
0.0744525
0.0749683
0.0753168
0.0755054
0.0244411
0.0288456
0.0328818
0.0365751
0.0399496
0.0430125
0.0457642
0.0482117
0.050375
0.0522733
0.0539106
0.0552884
0.0564209
0.057331
0.0580496
0.0586055
0.0590179
0.0592988
0.0594515
0.0178008
0.020971
0.0238893
0.0265731
0.029034
0.0312742
0.0332999
0.035122
0.0367505
0.0381837
0.0394102
0.0404322
0.0412683
0.0419383
0.0424676
0.042877
0.0431811
0.0433901
0.0435043
0.0113051
0.0132961
0.0151335
0.0168248
0.0183716
0.0197823
0.0210698
0.0222442
0.0233044
0.0242372
0.0250299
0.0256847
0.0262168
0.026642
0.0269789
0.0272399
0.0274337
0.0275676
0.027641
0.00486276
0.00570832
0.00648986
0.00720844
0.00786103
0.00845611
0.00900447
0.00951182
0.0099734
0.0103778
0.0107195
0.0110001
0.0112266
0.0114073
0.0115514
0.0116635
0.0117462
0.0118035
0.0118356
1324
1311.9
1289.88
1257.58
1214.4
1159.61
1092.13
1010.31
911.87
793.624
650.34
479.646
245.589
64.0669
9.98673
3.77503
2.64875
2.29249
2.07737
1.93988
1.85069
1.79811
1.77679
1325.15
1313.06
1291.07
1258.81
1215.67
1160.94
1093.53
1011.76
913.318
794.905
650.747
478.162
227.974
30.2424
7.48515
3.72226
2.56871
2.26045
2.0612
1.93014
1.84299
1.79113
1.77007
1327.87
1315.8
1293.88
1261.7
1218.67
1164.09
1096.84
1015.19
916.77
798.047
652.245
474.886
188.168
13.7791
4.18606
2.56426
2.3299
2.17501
2.02314
1.90638
1.82379
1.77336
1.75266
1332.14
1320.13
1298.3
1266.26
1223.42
1169.07
1102.07
1020.67
922.369
803.431
656.081
472.379
133.258
8.02968
2.96341
2.2598
2.17871
2.0892
1.97296
1.87134
1.79419
1.74511
1.72396
1337.98
1326.04
1304.34
1272.5
1229.92
1175.9
1109.28
1028.26
930.318
811.517
663.613
475.213
89.0136
5.15847
2.39896
2.10463
2.07112
2.00741
1.91567
1.82774
1.75541
1.70648
1.68438
1345.38
1333.54
1312.01
1280.42
1238.2
1184.62
1118.51
1038.1
940.822
822.765
675.83
486.209
56.6199
3.63254
2.13791
2.00454
1.98145
1.93139
1.85554
1.77758
1.70859
1.65773
1.63031
1354.37
1342.64
1321.32
1290.06
1248.27
1195.24
1129.82
1050.26
954.043
837.449
693.053
506.49
37.0148
2.85784
1.99454
1.92398
1.90381
1.85815
1.79314
1.7232
1.65557
1.59918
1.55932
1364.94
1353.34
1332.29
1301.41
1260.17
1207.82
1143.26
1064.82
970.1
855.743
715.452
535.139
23.4821
2.44353
1.89367
1.85064
1.82888
1.78893
1.73141
1.6661
1.59853
1.53255
1.45637
0.903203
0.893366
0.877407
0.857979
0.837192
0.816332
0.796162
0.777175
0.759647
0.743702
0.729356
0.716593
0.705451
0.69602
0.68835
0.682412
0.678137
0.675452
0.67432
0.904018
0.894058
0.877837
0.85816
0.837195
0.816225
0.795991
0.776979
0.759447
0.743494
0.729138
0.716372
0.705237
0.695814
0.688149
0.682215
0.677941
0.675257
0.674125
0.906004
0.895628
0.878771
0.858556
0.837204
0.815967
0.79557
0.77649
0.758945
0.742971
0.728582
0.715812
0.704711
0.695325
0.687675
0.681741
0.677465
0.674781
0.673649
0.909265
0.898285
0.880276
0.85913
0.837159
0.815529
0.794899
0.775708
0.75812
0.742109
0.727678
0.714914
0.703877
0.694556
0.686934
0.680999
0.676713
0.674026
0.672895
0.913787
0.90178
0.882152
0.859773
0.837001
0.814888
0.793985
0.774632
0.756949
0.740885
0.726432
0.713697
0.702738
0.693501
0.685925
0.679991
0.675692
0.672996
0.671862
0.919941
0.906478
0.884427
0.860407
0.836665
0.814001
0.792801
0.773251
0.755419
0.739289
0.724854
0.712178
0.7013
0.692152
0.684636
0.678717
0.674407
0.6717
0.670567
0.928298
0.911948
0.886837
0.860939
0.836084
0.812805
0.791288
0.771529
0.753533
0.737338
0.722951
0.710365
0.69957
0.690502
0.683055
0.677171
0.672861
0.670145
0.669005
0.939638
0.918254
0.889175
0.861205
0.835189
0.811245
0.789374
0.769419
0.7513
0.735062
0.720735
0.708256
0.697549
0.68855
0.681172
0.675341
0.671055
0.668341
0.6672
1380.47
1369.1
1348.44
1318.14
1277.68
1226.35
1163.1
1086.39
994.073
883.236
749.232
579.035
12.4479
2.10821
1.78831
1.76308
1.74169
1.70419
1.65333
1.59303
1.52496
1.44276
1.25218
1412.23
1401.29
1381.43
1352.34
1313.55
1264.42
1204.09
1131.31
1044.48
941.63
820.318
633.01
6.38194
1.78073
1.64821
1.6354
1.61456
1.58165
1.53725
1.48237
1.41729
1.3384
1.24419
1450.98
1440.59
1421.71
1394.1
1357.36
1310.98
1254.3
1186.43
1106.29
1012.81
905.232
676.369
4.19969
1.58683
1.52832
1.51726
1.49759
1.46858
1.42977
1.38154
1.32472
1.25875
1.18324
1496.61
1486.84
1469.12
1443.22
1408.86
1365.67
1313.19
1250.83
1178.01
1094.31
1000.04
702.936
2.85051
1.44909
1.41937
1.40758
1.38972
1.36447
1.33082
1.28938
1.24104
1.18634
1.12704
1548.87
1539.79
1523.33
1499.35
1467.61
1427.9
1379.93
1323.4
1258.06
1183.92
1101.97
711.232
2.01567
1.32318
1.31314
1.30372
1.28875
1.26717
1.23839
1.20357
1.16314
1.11822
1.07045
1607.4
1599.05
1583.95
1561.98
1533.03
1496.95
1453.63
1402.96
1344.96
1279.87
1209.04
703.411
1.58582
1.21205
1.21293
1.2059
1.19359
1.17561
1.15165
1.12266
1.08934
1.05268
1.01391
1671.8
1664.22
1650.51
1630.63
1604.52
1572.12
1533.44
1488.49
1437.46
1380.74
1319.84
681.577
1.35679
1.1236
1.1213
1.11395
1.10377
1.08922
1.06969
1.04598
1.01887
0.989125
0.957644
1741.65
1734.84
1722.54
1704.76
1681.47
1652.7
1618.52
1579.04
1534.53
1485.44
1433.33
648.178
1.17278
1.03875
1.03403
1.02645
1.01839
1.00711
0.991581
0.972765
0.951175
0.927311
0.901901
1816.5
1810.45
1799.56
1783.84
1763.3
1738.03
1708.14
1673.81
1635.33
1593.16
1548.8
607.034
1.01625
0.949682
0.948029
0.941817
0.936425
0.928363
0.916782
0.902443
0.885735
0.866921
0.846675
1895.85
1890.56
1881.03
1867.3
1849.42
1827.48
1801.64
1772.1
1739.16
1703.25
1665.78
560.622
0.908276
0.864213
0.863133
0.859341
0.85717
0.852482
0.844704
0.834511
0.822052
0.80777
0.792058
1979.21
1974.64
1966.42
1954.6
1939.23
1920.44
1898.39
1873.29
1845.44
1815.21
1783.87
510.501
0.789023
0.774496
0.778248
0.77874
0.780046
0.778855
0.774701
0.768399
0.760027
0.749871
0.738247
2066.06
2062.18
2055.2
2045.18
2032.19
2016.35
1997.83
1976.86
1953.68
1928.64
1902.81
458.468
0.670172
0.683068
0.694915
0.700225
0.705079
0.70719
0.706561
0.703971
0.69959
0.69324
0.685516
2155.92
2152.7
2146.9
2138.57
2127.79
2114.71
2099.48
2082.32
2063.48
2043.22
2022.46
404.324
0.584766
0.602245
0.616522
0.624669
0.632373
0.637434
0.640301
0.641234
0.640498
0.638007
0.634036
2248.38
2245.73
2241.01
2234.26
2225.56
2215.03
2202.84
2189.22
2174.41
2158.62
2142.62
348.542
0.521455
0.531846
0.543319
0.552091
0.561606
0.569378
0.575472
0.580089
0.582973
0.584132
0.583772
2342.8
2340.76
2337.06
2331.77
2324.97
2316.8
2307.43
2297.08
2286.01
2274.49
2263.08
291.332
0.461761
0.465841
0.472541
0.480871
0.491858
0.502577
0.512041
0.520297
0.52696
0.531625
0.534763
2438.73
2437.19
2434.42
2430.48
2425.43
2419.42
2412.6
2405.22
2397.6
2390.12
2383.35
230.981
0.4074
0.399568
0.399945
0.408181
0.421731
0.436128
0.449732
0.461954
0.472302
0.480572
0.487193
2536.84
2535.74
2533.84
2531.14
2527.7
2523.63
2519.08
2514.31
2509.71
2505.88
2503.44
179.684
0.357848
0.325773
0.319425
0.330562
0.349767
0.3696
0.388272
0.404959
0.41927
0.431226
0.441229
2621.12
2620.42
2619.12
2617.18
2614.74
2611.81
2608.55
2605.19
2602.11
2600.35
2600.63
352.671
0.316711
0.221593
0.221058
0.245035
0.275115
0.303255
0.32825
0.349808
0.368195
0.383852
0.397058
1345.65
1332.95
1315.72
1289.84
1256.73
1212.56
1162.73
1107.97
1049.05
1001.87
888.855
300.46
0.424497
0.022475
0.0947774
0.152425
0.199897
0.238688
0.270639
0.297405
0.319886
0.338882
0.355037
-1.10896
-1.11668
-1.10348
-1.09137
-1.07322
-1.05168
-1.02625
-0.997814
-0.970898
-0.947043
-0.984991
-1.28859
4.49525
-0.249676
-0.0393693
0.0631937
0.129719
0.17879
0.217444
0.248848
0.274904
0.296907
0.315594
-1.02038
-1.01331
-1.0037
-0.990161
-0.971329
-0.94799
-0.920279
-0.888515
-0.851877
-0.81773
-0.78408
-0.795368
-0.587433
-0.296556
-0.114483
-0.0031172
0.0719219
0.12712
0.170211
0.205083
0.233977
0.258274
0.278939
-0.917384
-0.913265
-0.904425
-0.88971
-0.869956
-0.845725
-0.816206
-0.781066
-0.739889
-0.690322
-0.635103
-0.559918
-0.415562
-0.259846
-0.136493
-0.0422999
0.0293686
0.0852858
0.130123
0.166805
0.197328
0.223202
0.24518
-0.837035
-0.831123
-0.820552
-0.804749
-0.784658
-0.758796
-0.727388
-0.68993
-0.645701
-0.593555
-0.529644
-0.449179
-0.34492
-0.23896
-0.144525
-0.0654479
-0.000490643
0.0528327
0.0970123
0.133931
0.165092
0.191667
0.214373
-0.762141
-0.756733
-0.746501
-0.731619
-0.711163
-0.685785
-0.654544
-0.616958
-0.572771
-0.520432
-0.458951
-0.386035
-0.304046
-0.222188
-0.146294
-0.0792408
-0.0214875
0.0279049
0.0701544
0.106164
0.137009
0.163641
0.186601
-0.690995
-0.685791
-0.676061
-0.661497
-0.64231
-0.617738
-0.587564
-0.551718
-0.509522
-0.460565
-0.404599
-0.341695
-0.274793
-0.208074
-0.145034
-0.0874782
-0.0361597
0.00909463
0.0485705
0.0829043
0.112859
0.139012
0.161774
-0.62488
-0.619819
-0.610653
-0.597249
-0.578909
-0.555769
-0.527353
-0.493793
-0.455004
-0.410623
-0.361129
-0.307321
-0.251185
-0.195342
-0.141756
-0.0917774
-0.0461576
-0.00511208
0.0313905
0.063704
0.0922519
0.117536
0.139714
-0.563853
-0.559417
-0.550822
-0.538178
-0.521338
-0.499769
-0.473821
-0.443294
-0.407986
-0.368447
-0.324998
-0.278599
-0.230769
-0.183173
-0.136977
-0.0933245
-0.0527747
-0.0156766
0.0178324
0.0478878
0.0748099
0.0988851
0.120204
-0.507776
-0.503266
-0.495576
-0.484003
-0.468629
-0.44929
-0.425755
-0.398197
-0.366709
-0.331679
-0.293687
-0.253556
-0.21245
-0.171385
-0.131258
-0.0929095
-0.0568568
-0.0234604
0.0071187
0.0349111
0.0600773
0.0827753
0.103064
-0.455524
-0.451816
-0.444605
-0.434335
-0.420424
-0.40293
-0.382041
-0.357557
-0.329696
-0.298982
-0.265897
-0.231135
-0.195638
-0.159966
-0.124898
-0.0910895
-0.0590162
-0.0289992