/*--------------------------------*- C++ -*----------------------------------*\
| =========                 |                                                 |
| \\      /  F ield         | OpenFOAM: The Open Source CFD Toolbox           |
|  \\    /   O peration     | Version:  v1912                                 |
|   \\  /    A nd           | Website:  www.openfoam.com                      |
|    \\/     M anipulation  |                                                 |
\*---------------------------------------------------------------------------*/
FoamFile
{
    version     2.0;
    format      ascii;
    class       surfaceScalarField;
    location    "0.05";
    object      phi;
}
// * * * * * * * * * * * * * * * * * * * * * * * * * * * * * * * * * * * * * //

dimensions      [0 3 -1 0 0 0 0];
oriented        oriented;


internalField   nonuniform List<scalar> 
17936
(
8.175e-07
-1.63935e-06
8.21848e-07
-1.68004e-06
2.53093e-06
-8.50888e-07
-3.38943e-06
4.26129e-06
-8.71865e-07
-5.15021e-06
6.05991e-06
-9.09695e-07
-6.99471e-06
7.95942e-06
-9.64712e-07
-8.95981e-06
1.00022e-05
-1.04241e-06
-1.1094e-05
1.22436e-05
-1.14962e-06
-1.34611e-05
1.47586e-05
-1.2975e-06
-1.61506e-05
1.76557e-05
-1.50504e-06
-1.92975e-05
2.11039e-05
-1.80637e-06
-2.31218e-05
2.53732e-05
-2.25134e-06
-2.79878e-05
3.10173e-05
-3.02949e-06
-3.44875e-05
3.80459e-05
-3.55836e-06
-4.13974e-05
4.52645e-05
-3.86707e-06
-4.99805e-05
5.31318e-05
-3.1513e-06
-5.15255e-05
4.6598e-05
4.92756e-06
-4.01084e-05
3.44417e-05
5.66676e-06
-2.99161e-05
2.58009e-05
4.11513e-06
-2.19382e-05
1.85821e-05
3.35611e-06
-1.58157e-05
1.34818e-05
2.3339e-06
-1.14056e-05
9.46886e-06
1.93676e-06
-7.59268e-06
5.72595e-06
1.86673e-06
-3.83969e-06
1.92337e-06
1.91632e-06
2.46013e-06
-3.27875e-06
8.18621e-07
-1.68507e-06
2.53846e-06
1.70579e-06
-2.55918e-06
-3.39916e-06
4.27301e-06
1.74762e-06
-2.62146e-06
-5.16359e-06
6.07473e-06
1.82316e-06
-2.7343e-06
-7.01063e-06
7.9761e-06
1.93312e-06
-2.89859e-06
-8.97651e-06
1.00181e-05
2.08809e-06
-3.12965e-06
-1.11079e-05
1.22541e-05
2.30171e-06
-3.44798e-06
-1.34665e-05
1.47564e-05
2.59616e-06
-3.88603e-06
-1.61381e-05
1.76292e-05
3.00935e-06
-4.50044e-06
-1.92509e-05
2.10311e-05
3.60849e-06
-5.38871e-06
-2.30038e-05
2.52143e-05
4.49505e-06
-6.70555e-06
-2.77419e-05
3.05665e-05
5.9454e-06
-8.77009e-06
-3.39347e-05
3.84344e-05
7.50453e-06
-1.20043e-05
-4.40813e-05
4.95773e-05
8.67699e-06
-1.41731e-05
-5.29064e-05
5.45583e-05
8.3815e-06
-1.00334e-05
-5.58814e-05
5.61867e-05
-4.36916e-06
4.06384e-06
-5.34891e-05
4.64728e-05
-1.28642e-05
1.98804e-05
-3.72521e-05
2.96057e-05
-1.32651e-05
2.09115e-05
-2.43743e-05
2.06222e-05
-8.02009e-06
1.17722e-05
-1.7652e-05
1.51248e-05
-5.06684e-06
7.59412e-06
-1.28573e-05
1.07279e-05
-4.14935e-06
6.2788e-06
-8.64869e-06
6.55727e-06
-4.0043e-06
6.09572e-06
-4.41776e-06
2.21548e-06
-4.15079e-06
6.35307e-06
4.09481e-06
-4.90802e-06
8.13214e-07
-1.67489e-06
2.52279e-06
3.41031e-06
-4.25821e-06
-3.37791e-06
4.24563e-06
3.49267e-06
-4.36039e-06
-5.12938e-06
6.03296e-06
3.64213e-06
-4.5457e-06
-6.96046e-06
7.91638e-06
3.85986e-06
-4.81578e-06
-8.90579e-06
9.93445e-06
4.16559e-06
-5.19425e-06
-1.1009e-05
1.2137e-05
4.58621e-06
-5.71423e-06
-1.33275e-05
1.45909e-05
5.16414e-06
-6.42756e-06
-1.59398e-05
1.73897e-05
5.97323e-06
-7.42309e-06
-1.89594e-05
2.06728e-05
7.13924e-06
-8.85264e-06
-2.25589e-05
2.46594e-05
8.86759e-06
-1.09681e-05
-2.70415e-05
2.96778e-05
1.15025e-05
-1.41388e-05
-3.28548e-05
3.7338e-05
1.66356e-05
-2.11189e-05
-4.27588e-05
4.66766e-05
1.92337e-05
-2.31514e-05
-4.85207e-05
4.78913e-05
1.01477e-05
-9.51832e-06
-4.50519e-05
4.0141e-05
-6.70372e-06
1.16147e-05
-3.38361e-05
2.83599e-05
-2.63325e-05
3.18087e-05
-2.52082e-05
2.31804e-05
-2.53829e-05
2.74106e-05
-2.10953e-05
1.88406e-05
-1.46182e-05
1.68729e-05
-1.66154e-05
1.45e-05
-9.90305e-06
1.20184e-05
-1.24828e-05
1.05161e-05
-8.32734e-06
1.0294e-05
-8.54785e-06
6.53526e-06
-8.14807e-06
1.01607e-05
-4.43856e-06
2.24179e-06
-8.54345e-06
1.07402e-05
5.71753e-06
-6.52262e-06
8.0509e-07
-1.65932e-06
2.49876e-06
5.102e-06
-5.94143e-06
-3.34502e-06
4.20315e-06
5.22368e-06
-6.08181e-06
-5.0766e-06
5.96875e-06
5.44401e-06
-6.33617e-06
-6.88356e-06
7.82514e-06
5.76504e-06
-6.70661e-06
-8.79816e-06
9.80778e-06
6.2141e-06
-7.22372e-06
-1.086e-05
1.19617e-05
6.82999e-06
-7.93165e-06
-1.31206e-05
1.43456e-05
7.6731e-06
-8.89811e-06
-1.56476e-05
1.70393e-05
8.84574e-06
-1.02375e-05
-1.8536e-05
2.01563e-05
1.05224e-05
-1.21427e-05
-2.19226e-05
2.38667e-05
1.29953e-05
-1.49394e-05
-2.60314e-05
2.83957e-05
1.6653e-05
-1.90174e-05
-3.12499e-05
3.50216e-05
2.52799e-05
-2.90516e-05
-3.90795e-05
4.14974e-05
2.61648e-05
-2.85826e-05
-4.1882e-05
3.91825e-05
7.958e-06
-5.25848e-06
-3.3383e-05
2.64434e-05
-1.80464e-05
2.49861e-05
-2.18739e-05
2.05679e-05
-3.51531e-05
3.64592e-05
-2.05614e-05
2.00936e-05
-2.82884e-05
2.87562e-05
-1.8924e-05
1.73596e-05
-1.8737e-05
2.03014e-05
-1.56486e-05
1.39018e-05
-1.39463e-05
1.56931e-05
-1.21481e-05
1.03744e-05
-1.21688e-05
1.39424e-05
-8.54624e-06
6.61708e-06
-1.21333e-05
1.40625e-05
-4.55079e-06
2.32575e-06
-1.29489e-05
1.5174e-05
7.32266e-06
-8.11733e-06
7.94663e-07
-1.6381e-06
2.46634e-06
6.77576e-06
-7.60401e-06
-3.30097e-06
4.14671e-06
6.93416e-06
-7.7799e-06
-5.00654e-06
5.88379e-06
7.22135e-06
-8.0986e-06
-6.78196e-06
7.70493e-06
7.6394e-06
-8.56237e-06
-8.65673e-06
9.64201e-06
8.22186e-06
-9.20714e-06
-1.06658e-05
1.17339e-05
9.01745e-06
-1.00856e-05
-1.2853e-05
1.40304e-05
1.01004e-05
-1.12778e-05
-1.52742e-05
1.65944e-05
1.1595e-05
-1.29153e-05
-1.80018e-05
1.95094e-05
1.37088e-05
-1.52164e-05
-2.11308e-05
2.28867e-05
1.67925e-05
-1.85484e-05
-2.47937e-05
2.68225e-05
2.12159e-05
-2.32447e-05
-2.92587e-05
3.21347e-05
3.23646e-05
-3.52407e-05
-3.43797e-05
3.55684e-05
3.04589e-05
-3.16476e-05
-3.44519e-05
2.94843e-05
1.43116e-06
3.53649e-06
-2.27637e-05
1.85561e-05
-3.10132e-05
3.52209e-05
-1.76142e-05
1.79745e-05
-3.65393e-05
3.6179e-05
-1.82345e-05
1.79473e-05
-2.90974e-05
2.93846e-05
-1.71639e-05
1.60489e-05
-2.16208e-05
2.27358e-05
-1.47385e-05
1.33198e-05
-1.72681e-05
1.86868e-05
-1.18331e-05
1.02777e-05
-1.56107e-05
1.71662e-05
-8.62654e-06
6.83289e-06
-1.5932e-05
1.77256e-05
-4.82263e-06
2.53161e-06
-1.74261e-05
1.97171e-05
8.90566e-06
-9.68738e-06
7.81724e-07
-1.61194e-06
2.42618e-06
8.42538e-06
-9.23962e-06
-3.24638e-06
4.07677e-06
8.61832e-06
-9.44871e-06
-4.92002e-06
5.7791e-06
8.96725e-06
-9.82634e-06
-6.6572e-06
7.55766e-06
9.47454e-06
-1.0375e-05
-8.48406e-06
9.44022e-06
1.01784e-05
-1.11346e-05
-1.04304e-05
1.14593e-05
1.11348e-05
-1.21637e-05
-1.25319e-05
1.36539e-05
1.24283e-05
-1.35503e-05
-1.48313e-05
1.60705e-05
1.4196e-05
-1.54352e-05
-1.73781e-05
1.87612e-05
1.6663e-05
-1.80461e-05
-2.02241e-05
2.1776e-05
2.02027e-05
-2.17547e-05
-2.3409e-05
2.50901e-05
2.50991e-05
-2.67801e-05
-2.70824e-05
2.92461e-05
3.77296e-05
-3.98933e-05
-3.06315e-05
3.05376e-05
3.21113e-05
-3.20173e-05
-2.72944e-05
2.11424e-05
-9.31284e-06
1.54649e-05
-1.68249e-05
1.58258e-05
-3.75774e-05
3.85764e-05
-1.60591e-05
1.63984e-05
-3.57709e-05
3.54316e-05
-1.65277e-05
1.63153e-05
-2.96316e-05
2.9844e-05
-1.57601e-05
1.49334e-05
-2.36943e-05
2.45211e-05
-1.39256e-05
1.27979e-05
-1.99565e-05
2.10841e-05
-1.15794e-05
1.02719e-05
-1.8601e-05
1.99085e-05
-8.84336e-06
7.21966e-06
-1.94412e-05
2.10649e-05
-5.2935e-06
2.92086e-06
-2.20493e-05
2.44219e-05
1.04618e-05
-1.12283e-05
7.66504e-07
-1.58071e-06
2.37871e-06
1.0046e-05
-1.0844e-05
-3.1822e-06
3.99469e-06
1.02704e-05
-1.10829e-05
-4.81869e-06
5.65668e-06
1.06752e-05
-1.15132e-05
-6.51162e-06
7.3863e-06
1.12629e-05
-1.21375e-05
-8.28378e-06
9.20707e-06
1.20747e-05
-1.2998e-05
-1.01595e-05
1.11447e-05
1.31711e-05
-1.41562e-05
-1.21663e-05
1.32282e-05
1.46425e-05
-1.57045e-05
-1.43341e-05
1.54875e-05
1.66318e-05
-1.77852e-05
-1.6691e-05
1.79466e-05
1.9365e-05
-2.06206e-05
-1.9249e-05
2.0605e-05
2.32055e-05
-2.45615e-05
-2.198e-05
2.33326e-05
2.829e-05
-2.96427e-05
-2.49389e-05
2.66024e-05
4.17835e-05
-4.3447e-05
-2.74391e-05
2.62539e-05
3.1294e-05
-3.01088e-05
-2.13398e-05
1.62076e-05
-2.13122e-05
2.64444e-05
-1.45842e-05
1.46215e-05
-3.88293e-05
3.8792e-05
-1.48935e-05
1.51171e-05
-3.5162e-05
3.49384e-05
-1.51786e-05
1.50084e-05
-3.00359e-05
3.0206e-05
-1.46036e-05
1.40018e-05
-2.52295e-05
2.58314e-05
-1.32443e-05
1.23737e-05
-2.20784e-05
2.2949e-05
-1.1419e-05
1.03836e-05
-2.10842e-05
2.21195e-05
-9.24132e-06
7.91348e-06
-2.25613e-05
2.38891e-05
-6.20918e-06
3.80262e-06
-2.68278e-05
2.92343e-05
1.19869e-05
-1.27378e-05
7.50933e-07
-1.54645e-06
2.32647e-06
1.1633e-05
-1.2413e-05
-3.11151e-06
3.90471e-06
1.18857e-05
-1.26789e-05
-4.70791e-06
5.5236e-06
1.234e-05
-1.31557e-05
-6.35409e-06
7.20198e-06
1.29986e-05
-1.38465e-05
-8.06956e-06
8.95939e-06
1.39041e-05
-1.4794e-05
-9.87396e-06
1.0816e-05
1.5119e-05
-1.60611e-05
-1.1788e-05
1.27926e-05
1.67364e-05
-1.77409e-05
-1.38317e-05
1.49066e-05
1.88972e-05
-1.99721e-05
-1.60172e-05
1.71625e-05
2.18175e-05
-2.29628e-05
-1.83311e-05
1.95278e-05
2.58306e-05
-2.70272e-05
-2.06912e-05
2.17642e-05
3.08568e-05
-3.19298e-05
-2.30121e-05
2.41688e-05
4.48664e-05
-4.60231e-05
-2.45334e-05
2.25927e-05
2.84604e-05
-2.65197e-05
-1.72397e-05
1.40016e-05
-3.05934e-05
3.38316e-05
-1.34813e-05
1.3616e-05
-3.86679e-05
3.85332e-05
-1.38356e-05
1.40055e-05
-3.47498e-05
3.45798e-05
-1.40524e-05
1.39351e-05
-3.03482e-05
3.04655e-05
-1.36504e-05
1.32126e-05
-2.63484e-05
2.67862e-05
-1.26608e-05
1.20275e-05
-2.36985e-05
2.43318e-05
-1.13379e-05
1.0609e-05
-2.30044e-05
2.37333e-05
-9.83371e-06
8.95499e-06
-2.50179e-05
2.58966e-05
-7.75999e-06
5.84018e-06
-3.155e-05
3.34698e-05
5.88033e-07
-1.22356e-06
6.3553e-07
-1.17075e-06
1.67718e-06
-5.06427e-07
-2.09743e-06
2.42402e-06
-3.26586e-07
-2.66106e-06
2.82112e-06
-1.60066e-07
-2.91758e-06
2.96251e-06
-4.49242e-08
-2.96703e-06
2.93955e-06
2.74844e-08
-2.88765e-06
2.81687e-06
7.07766e-08
-2.73228e-06
2.6375e-06
9.47722e-08
-2.5354e-06
2.42769e-06
1.07712e-07
-2.31544e-06
2.19977e-06
1.15672e-07
-2.08149e-06
1.96155e-06
1.19942e-07
-1.84079e-06
1.71985e-06
1.20933e-07
-1.59932e-06
1.47935e-06
1.19969e-07
-1.36039e-06
1.24233e-06
1.1806e-07
-1.12535e-06
1.00937e-06
1.15979e-07
-8.94347e-07
7.80205e-07
1.14142e-07
-6.66868e-07
5.54274e-07
1.12593e-07
-4.42399e-07
3.30988e-07
1.11411e-07
-2.18732e-07
1.07918e-07
1.10815e-07
1.87445e-06
-2.54087e-06
6.66416e-07
-1.29881e-06
1.8576e-06
1.05739e-06
-1.61617e-06
-2.31347e-06
2.66481e-06
6.78174e-07
-1.02952e-06
-2.9189e-06
3.08852e-06
3.32678e-07
-5.02301e-07
-3.18851e-06
3.23348e-06
9.31721e-08
-1.38146e-07
-3.23483e-06
3.20307e-06
-5.56255e-08
8.73909e-08
-3.14507e-06
3.06712e-06
-1.46372e-07
2.24327e-07
-2.97385e-06
2.86935e-06
-1.97621e-07
3.0212e-07
-2.75645e-06
2.6374e-06
-2.25646e-07
3.44699e-07
-2.51398e-06
2.3874e-06
-2.41712e-07
3.68286e-07
-2.25885e-06
2.12904e-06
-2.49749e-07
3.7956e-07
-1.99867e-06
1.8683e-06
-2.51425e-07
3.81803e-07
-1.7382e-06
1.60871e-06
-2.49403e-07
3.78894e-07
-1.48002e-06
1.35222e-06
-2.45989e-07
3.73794e-07
-1.22537e-06
1.09948e-06
-2.42024e-07
3.67913e-07
-9.74473e-07
8.50336e-07
-2.38135e-07
3.62272e-07
-7.26975e-07
6.04326e-07
-2.35077e-07
3.57726e-07
-4.82245e-07
3.606e-07
-2.32662e-07
3.54307e-07
-2.39646e-07
1.18688e-07
-2.3156e-07
3.52518e-07
3.22885e-06
-3.94195e-06
7.13095e-07
-1.38177e-06
1.97093e-06
2.18847e-06
-2.77763e-06
-2.43569e-06
2.77932e-06
1.37813e-06
-1.72176e-06
-3.01866e-06
3.17166e-06
6.65159e-07
-8.18163e-07
-3.2559e-06
3.28655e-06
1.77285e-07
-2.07936e-07
-3.27652e-06
3.23448e-06
-1.23431e-07
1.65479e-07
-3.16849e-06
3.08412e-06
-3.0508e-07
3.89446e-07
-2.98598e-06
2.87755e-06
-4.08411e-07
5.16845e-07
-2.76154e-06
2.64006e-06
-4.65013e-07
5.86498e-07
-2.51475e-06
2.38688e-06
-4.95698e-07
6.23571e-07
-2.25744e-06
2.12709e-06
-5.09649e-07
6.39992e-07
-1.99645e-06
1.86593e-06
-5.12372e-07
6.42896e-07
-1.73582e-06
1.60639e-06
-5.0862e-07
6.38054e-07
-1.47782e-06
1.35017e-06
-5.01502e-07
6.29152e-07
-1.22351e-06
1.09781e-06
-4.93518e-07
6.1922e-07
-9.73003e-07
8.49063e-07
-4.8623e-07
6.10171e-07
-7.25893e-07
6.0343e-07
-4.80344e-07
6.02807e-07
-4.816e-07
3.60022e-07
-4.75817e-07
5.97395e-07
-2.39165e-07
1.18744e-07
-4.73405e-07
5.93826e-07
4.69169e-06
-5.4882e-06
7.96518e-07
-1.54005e-06
2.17015e-06
3.38616e-06
-4.01625e-06
-2.63981e-06
2.96731e-06
2.05867e-06
-2.38617e-06
-3.1796e-06
3.30368e-06
9.57642e-07
-1.08171e-06
-3.36126e-06
3.36908e-06
2.27976e-07
-2.35796e-07
-3.33999e-06
3.28275e-06
-2.14925e-07
2.72162e-07
-3.2046e-06
3.11084e-06
-4.78477e-07
5.72235e-07
-3.00542e-06
2.89127e-06
-6.27914e-07
7.42064e-07
-2.77072e-06
2.64567e-06
-7.09516e-07
8.34564e-07
-2.51763e-06
2.38776e-06
-7.52458e-07
8.82329e-07
-2.25694e-06
2.12568e-06
-7.71115e-07
9.02375e-07
-1.99445e-06
1.86357e-06
-7.73691e-07
9.04565e-07
-1.73327e-06
1.60377e-06
-7.67302e-07
8.96801e-07
-1.47522e-06
1.34766e-06
-7.56951e-07
8.84513e-07
-1.22113e-06
1.09561e-06
-7.4512e-07
8.70642e-07
-9.71016e-07
8.4733e-07
-7.33812e-07
8.57499e-07
-7.2441e-07
6.022e-07
-7.2484e-07
8.4705e-07
-4.80619e-07
3.59891e-07
-7.18566e-07
8.39295e-07
-2.39471e-07
1.18884e-07
-7.13788e-07
8.34375e-07
6.3332e-06
-7.21532e-06
8.82119e-07
-1.77819e-06
2.48299e-06
4.67832e-06
-5.38312e-06
-2.95e-06
3.23976e-06
2.69803e-06
-2.98779e-06
-3.40546e-06
3.48456e-06
1.18581e-06
-1.26491e-06
-3.50306e-06
3.47852e-06
2.2832e-07
-2.03783e-07
-3.42367e-06
3.34613e-06
-3.38873e-07
4.16419e-07
-3.25211e-06
3.14601e-06
-6.71483e-07
7.77587e-07
-3.03105e-06
2.90946e-06
-8.59922e-07
9.8151e-07
-2.78312e-06
2.65359e-06
-9.62293e-07
1.09182e-06
-2.52211e-06
2.38968e-06
-1.01373e-06
1.14617e-06
-2.257e-06
2.12447e-06
-1.03405e-06
1.16659e-06
-1.99239e-06
1.86097e-06
-1.03572e-06
1.16714e-06
-1.73034e-06
1.60066e-06
-1.02684e-06
1.15652e-06
-1.47204e-06
1.34452e-06
-1.01196e-06
1.13948e-06
-1.2181e-06
1.09278e-06
-9.95608e-07
1.12093e-06
-9.68447e-07
8.45054e-07
-9.81029e-07
1.10442e-06
-7.22436e-07
6.00475e-07
-9.69272e-07
1.09123e-06
-4.79076e-07
3.57646e-07
-9.60198e-07
1.08163e-06
-2.36879e-07
1.1717e-07
-9.54911e-07
1.07462e-06
8.13644e-06
-9.08731e-06
9.50878e-07
-2.1477e-06
2.94505e-06
6.1351e-06
-6.93246e-06
-3.37983e-06
3.59893e-06
3.24815e-06
-3.46725e-06
-3.69166e-06
3.7075e-06
1.31429e-06
-1.33014e-06
-3.67472e-06
3.6094e-06
1.59728e-07
-9.44045e-08
-3.52303e-06
3.42105e-06
-5.05946e-07
6.07932e-07
-3.30809e-06
3.18732e-06
-8.91064e-07
1.01183e-06
-3.06097e-06
2.93066e-06
-1.10745e-06
1.23777e-06
-2.79764e-06
2.66298e-06
-1.22384e-06
1.3585e-06
-2.52756e-06
2.39214e-06
-1.28e-06
1.41541e-06
-2.25726e-06
2.12315e-06
-1.30012e-06
1.43424e-06
-1.99001e-06
1.85786e-06
-1.29902e-06
1.43117e-06
-1.72677e-06
1.59682e-06
-1.2861e-06
1.41605e-06
-1.46808e-06
1.34059e-06
-1.26712e-06
1.39462e-06
-1.21432e-06
1.08925e-06
-1.24638e-06
1.37144e-06
-9.65246e-07
8.42227e-07
-1.22752e-06
1.35054e-06
-7.20002e-07
5.98519e-07
-1.21262e-06
1.3341e-06
-4.77663e-07
3.5792e-07
-1.20216e-06
1.32191e-06
-2.38246e-07
1.18283e-07
-1.19374e-06
1.3137e-06
1.0047e-05
-1.11854e-05
1.13845e-06
-2.72284e-06
3.64518e-06
7.78609e-06
-8.70843e-06
-3.96793e-06
4.05205e-06
3.62851e-06
-3.71262e-06
-4.035e-06
3.96613e-06
1.30662e-06
-1.23775e-06
-3.86864e-06
3.75682e-06
5.9301e-09
1.05888e-07
-3.6338e-06
3.50416e-06
-7.23323e-07
8.5296e-07
-3.36995e-06
3.23278e-06
-1.14049e-06
1.27766e-06
-3.09372e-06
2.95369e-06
-1.37305e-06
1.51308e-06
-2.81326e-06
2.67301e-06
-1.49628e-06
1.63653e-06
-2.53334e-06
2.39472e-06
-1.55259e-06
1.69121e-06
-2.25741e-06
2.12153e-06
-1.56906e-06
1.70495e-06
-1.98711e-06
1.8541e-06
-1.56371e-06
1.69672e-06
-1.72245e-06
1.59217e-06
-1.54641e-06
1.67669e-06
-1.46329e-06
1.33582e-06
-1.52194e-06
1.64941e-06
-1.20973e-06
1.08497e-06
-1.49606e-06
1.62082e-06
-9.61353e-07
8.38764e-07
-1.47344e-06
1.59603e-06
-7.16997e-07
5.95877e-07
-1.45547e-06
1.57659e-06
-4.75239e-07
3.54285e-07
-1.44195e-06
1.5629e-06
-2.33876e-07
1.15142e-07
-1.4335e-06
1.55223e-06
-1.97903e-05
1.36429e-05
6.14735e-06
-4.21305e-06
4.73769e-06
9.63144e-06
-1.01561e-05
-4.73136e-06
4.58296e-06
3.69546e-06
-3.54706e-06
-4.41391e-06
4.24268e-06
1.11931e-06
-9.4808e-07
-4.0739e-06
3.91034e-06
-2.4307e-07
4.06631e-07
-3.74892e-06
3.58988e-06
-9.97231e-07
1.15628e-06
-3.43338e-06
3.27903e-06
-1.42379e-06
1.57814e-06
-3.12683e-06
2.97667e-06
-1.65824e-06
1.8084e-06
-2.82856e-06
2.6824e-06
-1.77958e-06
1.92574e-06
-2.53838e-06
2.39644e-06
-1.83149e-06
1.97343e-06
-2.25671e-06
2.11904e-06
-1.84193e-06
1.9796e-06
-1.98329e-06
1.84932e-06
-1.83013e-06
1.96409e-06
-1.71703e-06
1.58634e-06
-1.8068e-06
1.9375e-06
-1.45733e-06
1.32993e-06
-1.77691e-06
1.9043e-06
-1.20412e-06
1.07977e-06
-1.74577e-06
1.87012e-06
-9.56662e-07
8.34633e-07
-1.71834e-06
1.84037e-06
-7.13464e-07
5.93073e-07
-1.69707e-06
1.81746e-06
-4.7329e-07
3.54532e-07
-1.68269e-06
1.80144e-06
-2.35189e-07
1.1606e-07
-1.67053e-06
1.78966e-06
1.43064e-05
-1.5831e-05
1.52458e-06
-3.18972e-06
4.79594e-06
1.31838e-05
-1.479e-05
-6.41207e-06
8.04339e-06
1.34623e-05
-1.50936e-05
-9.69378e-06
1.13669e-05
1.39607e-05
-1.56338e-05
-1.30669e-05
1.47975e-05
1.46817e-05
-1.64123e-05
-1.65627e-05
1.83663e-05
1.56685e-05
-1.74721e-05
-2.02122e-05
2.21035e-05
1.69838e-05
-1.88751e-05
-2.4043e-05
2.60323e-05
1.87204e-05
-2.07097e-05
-2.8072e-05
3.01602e-05
2.10136e-05
-2.31018e-05
-3.22928e-05
3.44554e-05
2.4063e-05
-2.62256e-05
-3.66499e-05
3.8799e-05
2.8169e-05
-3.03181e-05
-4.09589e-05
4.30823e-05
3.28519e-05
-3.49754e-05
-4.51738e-05
4.66778e-05
4.70319e-05
-4.85359e-05
-4.5227e-05
3.91077e-05
2.41923e-05
-1.8073e-05
-2.9885e-05
2.67529e-05
-3.63194e-05
3.94516e-05
-2.63925e-05
2.6658e-05
-3.84003e-05
3.81347e-05
-2.70038e-05
2.72687e-05
-3.44171e-05
3.41522e-05
-2.73698e-05
2.72514e-05
-3.05578e-05
3.06762e-05
-2.68962e-05
2.63545e-05
-2.71484e-05
2.76901e-05
-2.5671e-05
2.49094e-05
-2.48558e-05
2.56173e-05
-2.41495e-05
2.34878e-05
-2.43073e-05
2.4969e-05
-2.30598e-05
2.3111e-05
-2.64756e-05
2.64244e-05
-2.43309e-05
2.88323e-05
-3.52288e-05
3.07274e-05
1.73086e-05
-1.87361e-05
1.42754e-06
-2.99026e-06
4.49297e-06
1.63462e-05
-1.78489e-05
-6.00301e-06
7.52315e-06
1.66709e-05
-1.8191e-05
-9.0558e-06
1.06031e-05
1.72455e-05
-1.87928e-05
-1.21674e-05
1.37504e-05
1.80702e-05
-1.96533e-05
-1.53539e-05
1.69789e-05
1.91871e-05
-2.08121e-05
-1.8626e-05
2.02949e-05
2.06548e-05
-2.23237e-05
-2.19842e-05
2.36909e-05
2.25554e-05
-2.42621e-05
-2.54101e-05
2.71339e-05
2.50019e-05
-2.67258e-05
-2.88515e-05
3.05459e-05
2.81423e-05
-2.98367e-05
-3.2195e-05
3.37688e-05
3.2164e-05
-3.37379e-05
-3.52157e-05
3.65174e-05
3.66305e-05
-3.79322e-05
-3.78412e-05
3.83914e-05
4.95243e-05
-5.00745e-05
-3.58053e-05
2.66561e-05
1.03355e-05
-1.18636e-06
-2.20019e-05
2.20877e-05
-4.06391e-05
4.05534e-05
-2.2854e-05
2.33979e-05
-3.78065e-05
3.72626e-05
-2.37833e-05
2.40407e-05
-3.39691e-05
3.37117e-05
-2.41972e-05
2.42477e-05
-3.07205e-05
3.06701e-05
-2.42006e-05
2.4081e-05
-2.79919e-05
2.81114e-05
-2.393e-05
2.38081e-05
-2.60073e-05
2.61292e-05
-2.38044e-05
2.404e-05
-2.50485e-05
2.48129e-05
-2.4682e-05
2.59373e-05
-2.51751e-05
2.39199e-05
-2.79604e-05
3.0838e-05
-2.51641e-05
2.22866e-05
2.01116e-05
-2.1433e-05
1.32144e-06
-2.77025e-06
4.15913e-06
1.92957e-05
-2.06845e-05
-5.5528e-06
6.95194e-06
1.96515e-05
-2.10507e-05
-8.35765e-06
9.77078e-06
2.02737e-05
-2.16868e-05
-1.1192e-05
1.26216e-05
2.11598e-05
-2.25894e-05
-1.40594e-05
1.55044e-05
2.23466e-05
-2.37916e-05
-1.6955e-05
1.84087e-05
2.38834e-05
-2.53371e-05
-1.98616e-05
2.1308e-05
2.58352e-05
-2.72817e-05
-2.27405e-05
2.41489e-05
2.82855e-05
-2.96939e-05
-2.55205e-05
2.68379e-05
3.13307e-05
-3.2648e-05
-2.80791e-05
2.92184e-05
3.5075e-05
-3.62143e-05
-3.02115e-05
3.10633e-05
3.89773e-05
-3.9829e-05
-3.18857e-05
3.19393e-05
5.03458e-05
-5.03993e-05
-2.77564e-05
1.88608e-05
-8.41232e-06
1.73079e-05
-1.75578e-05
1.84878e-05
-3.98157e-05
3.88856e-05
-1.93728e-05
2.00512e-05
-3.65762e-05
3.58978e-05
-2.05915e-05
2.10044e-05
-3.33671e-05
3.29542e-05
-2.13186e-05
2.15506e-05
-3.05203e-05
3.02883e-05
-2.17169e-05
2.18506e-05
-2.80855e-05
2.79518e-05
-2.19805e-05
2.21453e-05
-2.60735e-05
2.59088e-05
-2.239e-05
2.27663e-05
-2.44616e-05
2.40853e-05
-2.33215e-05
2.40874e-05
-2.29373e-05
2.21714e-05
-2.50557e-05
2.61215e-05
-2.05086e-05
1.94428e-05
2.26994e-05
-2.39096e-05
1.21015e-06
-2.5381e-06
3.80775e-06
2.20142e-05
-2.32838e-05
-5.07981e-06
6.35344e-06
2.23873e-05
-2.36609e-05
-7.62856e-06
8.90508e-06
2.30316e-05
-2.43081e-05
-1.01824e-05
1.14597e-05
2.39423e-05
-2.52196e-05
-1.27353e-05
1.40072e-05
2.51488e-05
-2.64208e-05
-1.52724e-05
1.65272e-05
2.66889e-05
-2.79436e-05
-1.77663e-05
1.89834e-05
2.86093e-05
-2.98264e-05
-2.01704e-05
2.13171e-05
3.09651e-05
-3.21119e-05
-2.24117e-05
2.34392e-05
3.381e-05
-3.48374e-05
-2.43814e-05
2.52193e-05
3.71888e-05
-3.80268e-05
-2.59216e-05
2.65097e-05
4.05352e-05
-4.11232e-05
-2.70573e-05
2.66421e-05
5.0226e-05
-4.98109e-05
-2.02429e-05
1.509e-05
-2.45841e-05
2.97371e-05
-1.51432e-05
1.59772e-05
-3.80409e-05
3.72069e-05
-1.67105e-05
1.73416e-05
-3.52149e-05
3.45838e-05
-1.79079e-05
1.83807e-05
-3.25065e-05
3.20336e-05
-1.87803e-05
1.9113e-05
-2.99964e-05
2.96637e-05
-1.93929e-05
1.96463e-05
-2.77447e-05
2.74913e-05
-1.9889e-05
2.01402e-05
-2.56862e-05
2.5435e-05
-2.04191e-05
2.07425e-05
-2.37239e-05
2.34004e-05
-2.11163e-05
2.15273e-05
-2.16005e-05
2.11895e-05
-2.19374e-05
2.22738e-05
-1.88421e-05
1.85057e-05
2.50635e-05
-2.61608e-05
1.09723e-06
-2.30189e-06
3.4509e-06
2.44932e-05
-2.56422e-05
-4.6005e-06
5.74835e-06
2.48715e-05
-2.60193e-05
-6.89393e-06
8.03607e-06
2.5517e-05
-2.66591e-05
-9.17362e-06
1.03047e-05
2.64227e-05
-2.75537e-05
-1.14272e-05
1.25381e-05
2.76104e-05
-2.87213e-05
-1.3634e-05
1.47106e-05
2.91065e-05
-3.01831e-05
-1.57626e-05
1.67835e-05
3.09414e-05
-3.19623e-05
-1.77659e-05
1.87008e-05
3.31471e-05
-3.4082e-05
-1.95783e-05
2.03863e-05
3.57469e-05
-3.65549e-05
-2.11111e-05
2.17389e-05
3.87503e-05
-3.93781e-05
-2.22483e-05
2.26682e-05
4.16219e-05
-4.20419e-05
-2.30171e-05
2.20309e-05
4.91352e-05
-4.81489e-05
-1.33507e-05
1.19237e-05
-3.27487e-05
3.41756e-05
-1.28091e-05
1.37178e-05
-3.63885e-05
3.54797e-05
-1.44327e-05
1.50465e-05
-3.39276e-05
3.33138e-05
-1.56125e-05
1.61e-05
-3.15527e-05
3.10652e-05
-1.65236e-05
1.68907e-05
-2.9308e-05
2.89408e-05
-1.72086e-05
1.75003e-05
-2.72134e-05
2.69217e-05
-1.77683e-05
1.80217e-05
-2.51779e-05
2.49246e-05
-1.82678e-05
1.8507e-05
-2.31183e-05
2.28791e-05
-1.87392e-05
1.89474e-05
-2.08978e-05
2.06896e-05
-1.9105e-05
1.91768e-05
-1.83325e-05
1.82606e-05
2.7202e-05
-2.81874e-05
9.85473e-07
-2.06757e-06
3.09788e-06
2.67315e-05
-2.77618e-05
-4.12706e-06
5.15226e-06
2.71053e-05
-2.81305e-05
-6.17228e-06
7.18559e-06
2.7736e-05
-2.87493e-05
-8.19038e-06
9.1845e-06
2.8615e-05
-2.96091e-05
-1.01653e-05
1.11297e-05
2.9757e-05
-3.07214e-05
-1.2074e-05
1.2994e-05
3.11786e-05
-3.20987e-05
-1.38847e-05
1.47403e-05
3.2897e-05
-3.37526e-05
-1.55543e-05
1.63192e-05
3.49274e-05
-3.56923e-05
-1.70271e-05
1.76688e-05
3.72734e-05
-3.79151e-05
-1.8234e-05
1.87131e-05
3.99254e-05
-4.04045e-05
-1.90913e-05
1.94004e-05
4.24037e-05
-4.27128e-05
-1.962e-05
1.7863e-05
4.68149e-05
-4.50579e-05
-1.00582e-05
1.01144e-05
-3.46245e-05
3.45684e-05
-1.11105e-05
1.19219e-05
-3.46292e-05
3.38177e-05
-1.25592e-05
1.31086e-05
-3.26734e-05
3.21241e-05
-1.36309e-05
1.40885e-05
-3.05943e-05
3.01367e-05
-1.44971e-05
1.48558e-05
-2.85742e-05
2.82156e-05
-1.51674e-05
1.54512e-05
-2.66334e-05
2.63496e-05
-1.57054e-05
1.5934e-05
-2.46826e-05
2.44539e-05
-1.6136e-05
1.63106e-05
-2.26715e-05
2.24969e-05
-1.64552e-05
1.65591e-05
-2.0545e-05
2.04411e-05
-1.66076e-05
1.65854e-05
-1.82489e-05
1.82711e-05
2.91183e-05
-2.99951e-05
8.76847e-07
-1.84045e-06
2.75623e-06
2.87343e-05
-2.965e-05
-3.66964e-06
4.57766e-06
2.90963e-05
-3.00043e-05
-5.47857e-06
6.37066e-06
2.9701e-05
-3.05931e-05
-7.25181e-06
8.11974e-06
3.05387e-05
-3.14066e-05
-8.97168e-06
9.80456e-06
3.16182e-05
-3.24511e-05
-1.06149e-05
1.13987e-05
3.29482e-05
-3.37321e-05
-1.21517e-05
1.28687e-05
3.4536e-05
-3.52531e-05
-1.35445e-05
1.41729e-05
3.63855e-05
-3.70139e-05
-1.47479e-05
1.52626e-05
3.84885e-05
-3.90031e-05
-1.57092e-05
1.60809e-05
4.08259e-05
-4.11976e-05
-1.63679e-05
1.66014e-05
4.2982e-05
-4.32155e-05
-1.67342e-05
1.37956e-05
4.27442e-05
-3.98056e-05
-9.44476e-06
9.4854e-06
-3.44906e-05
3.445e-05
-1.00225e-05
1.05548e-05
-3.32137e-05
3.26813e-05
-1.10234e-05
1.14514e-05
-3.15746e-05
3.11467e-05
-1.18941e-05
1.2293e-05
-2.97133e-05
2.93145e-05
-1.26601e-05
1.29857e-05
-2.78743e-05
2.75487e-05
-1.32683e-05
1.35268e-05
-2.60805e-05
2.5822e-05
-1.37535e-05
1.39481e-05
-2.42421e-05
2.40475e-05
-1.41128e-05
1.4246e-05
-2.23439e-05
2.22107e-05
-1.43418e-05
1.43957e-05
-2.0368e-05
2.03142e-05
-1.44003e-05
1.43497e-05
-1.83121e-05
1.83628e-05
3.08197e-05
-3.15931e-05
7.7333e-07
-1.6238e-06
2.43067e-06
3.05105e-05
-3.13174e-05
-3.23461e-06
4.03209e-06
3.0856e-05
-3.16535e-05
-4.82157e-06
5.60095e-06
3.14277e-05
-3.2207e-05
-6.36826e-06
7.12099e-06
3.22154e-05
-3.29682e-05
-7.85668e-06
8.5723e-06
3.32235e-05
-3.39391e-05
-9.26481e-06
9.93068e-06
3.44547e-05
-3.51206e-05
-1.05661e-05
1.11668e-05
3.59095e-05
-3.65102e-05
-1.17285e-05
1.22465e-05
3.75845e-05
-3.81024e-05
-1.27163e-05
1.31324e-05
3.94647e-05
-3.98809e-05
-1.34892e-05
1.37819e-05
4.15273e-05
-4.182e-05
-1.40041e-05
1.41858e-05
4.34202e-05
-4.36019e-05
-1.4274e-05
1.01906e-05
3.63067e-05
-3.22233e-05
-8.2719e-06
8.43387e-06
-3.44856e-05
3.43236e-05
-8.81108e-06
9.22501e-06
-3.23158e-05
3.19019e-05
-9.59616e-06
9.93406e-06
-3.06965e-05
3.03586e-05
-1.0305e-05
1.06468e-05
-2.89501e-05
2.86083e-05
-1.09657e-05
1.12517e-05
-2.72494e-05
2.69634e-05
-1.14982e-05
1.17251e-05
-2.55831e-05
2.53562e-05
-1.19224e-05
1.20882e-05
-2.3867e-05
2.37012e-05
-1.22246e-05
1.23267e-05
-2.20934e-05
2.19913e-05
-1.23971e-05
1.24327e-05
-2.02743e-05
2.02388e-05
-1.24249e-05
1.2371e-05
-1.84158e-05
1.84696e-05
3.23168e-05
-3.29923e-05
6.75529e-07
-1.41949e-06
2.12416e-06
3.20724e-05
-3.2777e-05
-2.8253e-06
3.51979e-06
3.23986e-05
-3.30931e-05
-4.2058e-06
4.88144e-06
3.29335e-05
-3.36091e-05
-5.54455e-06
6.19301e-06
3.36674e-05
-3.43159e-05
-6.82417e-06
7.43565e-06
3.46011e-05
-3.52126e-05
-8.02447e-06
8.58783e-06
3.57333e-05
-3.62966e-05
-9.12246e-06
9.62492e-06
3.70599e-05
-3.75624e-05
-1.00918e-05
1.05193e-05
3.85733e-05
-3.90008e-05
-1.09042e-05
1.12425e-05
4.02551e-05
-4.05934e-05
-1.15298e-05
1.17628e-05
4.20813e-05
-4.23143e-05
-1.19373e-05
1.20821e-05
4.37611e-05
-4.39059e-05
-1.21396e-05
7.33284e-06
2.75329e-05
-2.27262e-05
-6.42591e-06
6.99597e-06
-3.39929e-05
3.34228e-05
-7.43263e-06
7.84832e-06
-3.15775e-05
3.11618e-05
-8.20034e-06
8.4921e-06
-2.99593e-05
2.96675e-05
-8.8148e-06
9.1088e-06
-2.82954e-05
2.80014e-05
-9.38597e-06
9.63572e-06
-2.67071e-05
2.64573e-05
-9.8453e-06
1.00374e-05
-2.5149e-05
2.49569e-05
-1.02062e-05
1.03499e-05
-2.35466e-05
2.34028e-05
-1.04639e-05
1.05491e-05
-2.18957e-05
2.18105e-05
-1.06065e-05
1.06322e-05
-2.02112e-05
2.01855e-05
-1.06253e-05
1.05863e-05
-1.85175e-05
1.85564e-05
3.36213e-05
-3.42052e-05
5.83854e-07
-1.22862e-06
1.83802e-06
3.34332e-05
-3.40426e-05
-2.44378e-06
3.04282e-06
3.37388e-05
-3.43378e-05
-3.63347e-06
4.21385e-06
3.42361e-05
-3.48164e-05
-4.78204e-06
5.33583e-06
3.49158e-05
-3.54696e-05
-5.8733e-06
6.39186e-06
3.57764e-05
-3.62949e-05
-6.8894e-06
7.36326e-06
3.68137e-05
-3.72876e-05
-7.81082e-06
8.2293e-06
3.80214e-05
-3.84399e-05
-8.6161e-06
8.96833e-06
3.93894e-05
-3.97416e-05
-9.28366e-06
9.55905e-06
4.0898e-05
-4.11733e-05
-9.79126e-06
9.97772e-06
4.25233e-05
-4.27097e-05
-1.01158e-05
1.02308e-05
4.40323e-05
-4.41473e-05
-1.02551e-05
6.17393e-06
1.82377e-05
-1.41566e-05
-5.38604e-06
5.78785e-06
-3.29538e-05
3.25519e-05
-6.13313e-06
6.5223e-06
-3.08512e-05
3.0462e-05
-6.86039e-06
7.12058e-06
-2.92958e-05
2.90357e-05
-7.40622e-06
7.66101e-06
-2.77274e-05
2.74727e-05
-7.90105e-06
8.1151e-06
-2.62402e-05
2.60262e-05
-8.29187e-06
8.45769e-06
-2.47811e-05
2.46153e-05
-8.60025e-06
8.71656e-06
-2.32722e-05
2.31559e-05
-8.81355e-06
8.89048e-06
-2.17295e-05
2.16525e-05
-8.94217e-06
8.96936e-06
-2.01606e-05
2.01334e-05
-8.97111e-06
8.94429e-06
-1.85886e-05
1.86154e-05
3.47458e-05
-3.52444e-05
4.98594e-07
-1.05138e-06
1.57245e-06
3.46071e-05
-3.51282e-05
-2.08982e-06
2.60082e-06
3.4892e-05
-3.5403e-05
-3.10382e-06
3.59706e-06
3.53523e-05
-3.58456e-05
-4.07871e-06
4.54706e-06
3.59797e-05
-3.6448e-05
-5e-06
5.43573e-06
3.67709e-05
-3.72066e-05
-5.85195e-06
6.24695e-06
3.77207e-05
-3.81157e-05
-6.61829e-06
6.96406e-06
3.8821e-05
-3.91668e-05
-7.28203e-06
7.57036e-06
4.00609e-05
-4.03493e-05
-7.82717e-06
8.0506e-06
4.14209e-05
-4.16443e-05
-8.238e-06
8.3879e-06
4.28776e-05
-4.30275e-05
-8.49904e-06
8.59568e-06
4.42492e-05
-4.43459e-05
-8.61763e-06
3.64369e-06
9.87762e-06
-4.90368e-06
-3.76078e-06
4.3541e-06
-3.21824e-05
3.15891e-05
-4.7977e-06
5.23402e-06
-3.01514e-05
2.9715e-05
-5.5838e-06
5.82951e-06
-2.86816e-05
2.84359e-05
-6.08243e-06
6.30231e-06
-2.72315e-05
2.70116e-05
-6.50068e-06
6.67671e-06
-2.58465e-05
2.56705e-05
-6.82204e-06
6.95687e-06
-2.44691e-05
2.43343e-05
-7.07507e-06
7.17723e-06
-2.30465e-05
2.29443e-05
-7.26229e-06
7.32623e-06
-2.15792e-05
2.15153e-05
-7.37581e-06
7.4106e-06
-2.0106e-05
2.00712e-05
-7.4238e-06
7.41589e-06
-1.86326e-05
1.86405e-05
3.57028e-05
-3.61222e-05
4.19425e-07
-8.87142e-07
1.32661e-06
3.56077e-05
-3.60471e-05
-1.7624e-06
2.1924e-06
3.58727e-05
-3.63027e-05
-2.61484e-06
3.02843e-06
3.62981e-05
-3.67117e-05
-3.43122e-06
3.82189e-06
3.68766e-05
-3.72672e-05
-4.19841e-06
4.55945e-06
3.7604e-05
-3.7965e-05
-4.90291e-06
5.22751e-06
3.84744e-05
-3.8799e-05
-5.53131e-06
5.81272e-06
3.94796e-05
-3.9761e-05
-6.07028e-06
6.30259e-06
4.0609e-05
-4.08413e-05
-6.50866e-06
6.68718e-06
4.18439e-05
-4.20224e-05
-6.8365e-06
6.95585e-06
4.31621e-05
-4.32815e-05
-7.04502e-06
7.12691e-06
4.44307e-05
-4.45126e-05
-7.13358e-06
1.68523e-06
-7.74823e-07
6.22318e-06
-2.30451e-06
3.1345e-06
-3.08182e-05
2.99882e-05
-3.66888e-06
4.1226e-06
-2.93303e-05
2.88766e-05
-4.45585e-06
4.66357e-06
-2.81039e-05
2.78962e-05
-4.86525e-06
5.02942e-06
-2.68126e-05