/*--------------------------------*- C++ -*----------------------------------*\
| =========                 |                                                 |
| \\      /  F ield         | OpenFOAM: The Open Source CFD Toolbox           |
|  \\    /   O peration     | Version:  v1912                                 |
|   \\  /    A nd           | Website:  www.openfoam.com                      |
|    \\/     M anipulation  |                                                 |
\*---------------------------------------------------------------------------*/
FoamFile
{
    version     2.0;
    format      ascii;
    class       volVectorField;
    location    "0.05";
    object      U;
}
// * * * * * * * * * * * * * * * * * * * * * * * * * * * * * * * * * * * * * //

dimensions      [0 1 -1 0 0 0 0];


internalField   nonuniform List<vector> 
9072
(
(0.00938407 -0.0132505 0)
(0.0480356 -0.00458023 0)
(0.0873072 -0.00469372 0)
(0.127928 -0.00489645 0)
(0.170644 -0.00519357 0)
(0.21637 -0.00561369 0)
(0.266274 -0.0061905 0)
(0.321932 -0.00698824 0)
(0.385578 -0.0081133 0)
(0.460419 -0.00973259 0)
(0.551214 -0.0121464 0)
(0.672026 -0.0163964 0)
(0.810054 -0.0201317 0)
(0.990406 -0.0195943 0)
(1.1968 -0.0153264 0)
(1.1351 0.0339189 0)
(0.848982 0.0375734 0)
(0.637478 0.0156155 0)
(0.460627 0.0162086 0)
(0.333492 0.0119925 0)
(0.238016 0.00998428 0)
(0.151994 0.0096571 0)
(0.0657857 0.00990835 0)
(0.00933284 -0.0309499 0)
(0.0481842 -0.0230031 0)
(0.0875474 -0.023565 0)
(0.128241 -0.0245826 0)
(0.171003 -0.0260644 0)
(0.216727 -0.0281497 0)
(0.266532 -0.0310214 0)
(0.321941 -0.0349808 0)
(0.385088 -0.0405308 0)
(0.458959 -0.0486094 0)
(0.547626 -0.0605596 0)
(0.665893 -0.0799314 0)
(0.800531 -0.104276 0)
(1.07258 -0.125279 0)
(1.24506 -0.109025 0)
(1.29388 0.0412808 0)
(1.16886 0.168155 0)
(0.743945 0.184555 0)
(0.508391 0.107747 0)
(0.372908 0.0683888 0)
(0.26888 0.056409 0)
(0.173675 0.0544992 0)
(0.0758959 0.056601 0)
(0.00927535 -0.0485651 0)
(0.0478858 -0.0413669 0)
(0.0869882 -0.0423644 0)
(0.127366 -0.0441718 0)
(0.169737 -0.0468059 0)
(0.214953 -0.0505017 0)
(0.264054 -0.0555845 0)
(0.318447 -0.0625626 0)
(0.38009 -0.0723336 0)
(0.451534 -0.0863616 0)
(0.536142 -0.107243 0)
(0.648753 -0.138737 0)
(0.768078 -0.204922 0)
(1.03686 -0.232305 0)
(1.12297 -0.107823 0)
(0.986898 0.0920629 0)
(0.702849 0.321041 0)
(0.546822 0.288695 0)
(0.455427 0.170721 0)
(0.354716 0.118684 0)
(0.262348 0.100459 0)
(0.172379 0.0988002 0)
(0.0766768 0.104119 0)
(0.00916374 -0.0660368 0)
(0.0474422 -0.0595794 0)
(0.0861288 -0.0609949 0)
(0.126032 -0.063559 0)
(0.16782 -0.0672936 0)
(0.212284 -0.0725117 0)
(0.260363 -0.0796638 0)
(0.31331 -0.0894454 0)
(0.372795 -0.103015 0)
(0.440894 -0.122419 0)
(0.519863 -0.150969 0)
(0.623328 -0.192909 0)
(0.721151 -0.294155 0)
(0.945449 -0.297305 0)
(0.95918 -0.0733741 0)
(0.680876 0.233623 0)
(0.472362 0.390091 0)
(0.466672 0.308664 0)
(0.414462 0.210786 0)
(0.337291 0.159901 0)
(0.257146 0.141076 0)
(0.173576 0.1414 0)
(0.0789364 0.151543 0)
(0.00905301 -0.0832954 0)
(0.0468309 -0.0775842 0)
(0.084982 -0.07939 0)
(0.124263 -0.0826632 0)
(0.16529 -0.0874254 0)
(0.208781 -0.0940549 0)
(0.255559 -0.1031 0)
(0.306677 -0.115392 0)
(0.363514 -0.132331 0)
(0.427502 -0.156192 0)
(0.499667 -0.190956 0)
(0.591637 -0.240332 0)
(0.667267 -0.365502 0)
(0.817483 -0.336948 0)
(0.771008 0.00879518 0)
(0.44722 0.362365 0)
(0.406455 0.393092 0)
(0.414777 0.315122 0)
(0.379778 0.239797 0)
(0.320573 0.194403 0)
(0.252567 0.176884 0)
(0.177095 0.18166 0)
(0.0852464 0.200594 0)
(0.00889517 -0.100322 0)
(0.0460763 -0.0953093 0)
(0.0835614 -0.0974807 0)
(0.122083 -0.101404 0)
(0.162189 -0.107107 0)
(0.204516 -0.115011 0)
(0.249753 -0.125735 0)
(0.298755 -0.140218 0)
(0.352531 -0.159944 0)
(0.41196 -0.18741 0)
(0.476645 -0.22664 0)
(0.555874 -0.280278 0)
(0.614035 -0.419146 0)
(0.717565 -0.346044 0)
(0.575099 0.134642 0)
(0.360374 0.413422 0)
(0.371586 0.383731 0)
(0.376474 0.321388 0)
(0.350946 0.260159 0)
(0.305399 0.221428 0)
(0.249784 0.207989 0)
(0.184366 0.218674 0)
(0.0957078 0.2504 0)
(0.00872358 -0.116982 0)
(0.0451807 -0.112719 0)
(0.0818917 -0.115221 0)
(0.11953 -0.119732 0)
(0.158573 -0.126277 0)
(0.199574 -0.13531 0)
(0.243083 -0.147489 0)
(0.289747 -0.163801 0)
(0.340258 -0.185793 0)
(0.394909 -0.215873 0)
(0.452088 -0.257969 0)
(0.518753 -0.313014 0)
(0.566046 -0.460078 0)
(0.638471 -0.332325 0)
(0.415994 0.259891 0)
(0.331399 0.418748 0)
(0.343753 0.378174 0)
(0.345431 0.324713 0)
(0.327138 0.275799 0)
(0.292847 0.243258 0)
(0.249162 0.233232 0)
(0.196887 0.25081 0)
(0.118792 0.302781 0)
(0.00855029 -0.133504 0)
(0.0441948 -0.129715 0)
(0.0800623 -0.132511 0)
(0.116754 -0.137534 0)
(0.154685 -0.144816 0)
(0.194319 -0.154815 0)
(0.236095 -0.16821 0)
(0.280499 -0.186009 0)
(0.327948 -0.209704 0)
(0.378388 -0.241619 0)
(0.429218 -0.285295 0)
(0.485086 -0.338592 0)
(0.524144 -0.490676 0)
(0.565036 -0.296461 0)
(0.330408 0.350149 0)
(0.309543 0.41658 0)
(0.318353 0.374131 0)
(0.320383 0.328559 0)
(0.30709 0.28679 0)
(0.28209 0.2593 0)
(0.250753 0.252498 0)
(0.215572 0.275125 0)
(0.164165 0.350617 0)
(0.00722969 -0.00883353 0)
(0.0325352 -0.00238893 0)
(0.0516983 -0.00150056 0)
(0.0626554 -0.000717386 0)
(0.067185 -0.000192194 0)
(0.0674586 0.000137965 0)
(0.0651357 0.000331495 0)
(0.0613174 0.000437621 0)
(0.0566626 0.000498281 0)
(0.0515382 0.000534586 0)
(0.0461498 0.000552056 0)
(0.0406477 0.000555485 0)
(0.0351474 0.00055113 0)
(0.0297139 0.00054285 0)
(0.0243707 0.00053384 0)
(0.0191169 0.000525741 0)
(0.0139405 0.000518855 0)
(0.00882398 0.000514408 0)
(0.00374448 0.000507672 0)
(0.00752434 -0.0214092 0)
(0.0361193 -0.0128149 0)
(0.0569539 -0.00827631 0)
(0.0686797 -0.00408394 0)
(0.073392 -0.00115146 0)
(0.0735343 0.00067755 0)
(0.0709406 0.00178722 0)
(0.0667305 0.00242444 0)
(0.0615817 0.00277291 0)
(0.0559441 0.00296316 0)
(0.0500844 0.00305249 0)
(0.0441447 0.00306954 0)
(0.0382106 0.00304548 0)
(0.0323348 0.00300553 0)
(0.0265417 0.00295938 0)
(0.0208325 0.00291419 0)
(0.0151981 0.0028772 0)
(0.00962115 0.00284891 0)
(0.00409542 0.00281529 0)
(0.00805721 -0.0347239 0)
(0.038476 -0.0242469 0)
(0.0596904 -0.0150543 0)
(0.070771 -0.00715181 0)
(0.0747599 -0.00183178 0)
(0.0743662 0.00142285 0)
(0.0714007 0.00338706 0)
(0.0669557 0.00449713 0)
(0.0616667 0.00510274 0)
(0.0559479 0.00543103 0)
(0.0500454 0.00558136 0)
(0.0440901 0.00561033 0)
(0.0381554 0.0055671 0)
(0.0322855 0.00548888 0)
(0.0265008 0.00540283 0)
(0.0208008 0.00532361 0)
(0.0151751 0.00525917 0)
(0.00960965 0.0052127 0)
(0.00408406 0.00520921 0)
(0.00913451 -0.049362 0)
(0.0425675 -0.0357436 0)
(0.0642367 -0.0215502 0)
(0.0741282 -0.00995941 0)
(0.0768989 -0.00230233 0)
(0.0756424 0.00233024 0)
(0.0721211 0.00508251 0)
(0.0673281 0.00664926 0)
(0.0618344 0.00749517 0)
(0.0559966 0.00793456 0)
(0.050027 0.00812556 0)
(0.0440401 0.00815091 0)
(0.0380961 0.00808053 0)
(0.0322278 0.00797034 0)
(0.0264491 0.00784647 0)
(0.0207589 0.00772769 0)
(0.0151447 0.0076317 0)
(0.00959051 0.0075615 0)
(0.00410757 0.00748869 0)
(0.00975267 -0.0656939 0)
(0.0492416 -0.0489024 0)
(0.0709411 -0.0276562 0)
(0.078766 -0.0118575 0)
(0.0797607 -0.00205913 0)
(0.0773142 0.00370005 0)
(0.0730622 0.00705627 0)
(0.0678202 0.00894568 0)
(0.0620626 0.00997189 0)
(0.0560728 0.0104833 0)
(0.0500164 0.0106833 0)
(0.0439857 0.0106981 0)
(0.0380249 0.0106019 0)
(0.0321545 0.010446 0)
(0.0263821 0.0102777 0)
(0.0207035 0.0101267 0)
(0.015103 0.0100048 0)
(0.00955895 0.00991648 0)
(0.00402663 0.00988454 0)
(0.0103051 -0.0836957 0)
(0.0590981 -0.0632916 0)
(0.080012 -0.03261 0)
(0.0845661 -0.0129307 0)
(0.0832085 -0.00130404 0)
(0.0792919 0.00537474 0)
(0.0741646 0.00922036 0)
(0.068399 0.0113837 0)
(0.0623323 0.0125403 0)
(0.0561633 0.0130868 0)
(0.050007 0.0132756 0)
(0.0439234 0.0132587 0)
(0.0379383 0.0131216 0)
(0.0320627 0.0129251 0)
(0.0262978 0.0127129 0)
(0.0206345 0.0125197 0)
(0.015052 0.0123652 0)
(0.0095306 0.0122533 0)
(0.00409901 0.0121513 0)
(0.0161425 -0.0987594 0)
(0.0748871 -0.0799427 0)
(0.0918675 -0.0357779 0)
(0.0913817 -0.0123531 0)
(0.0870838 0.000488506 0)
(0.0814882 0.00767543 0)
(0.0753758 0.0117548 0)
(0.0690309 0.0140166 0)
(0.062621 0.0152136 0)
(0.0562537 0.0157506 0)
(0.0499895 0.0158957 0)
(0.0438478 0.0158327 0)
(0.0378334 0.0156504 0)
(0.03195 0.015399 0)
(0.0261946 0.0151361 0)
(0.0205496 0.0149055 0)
(0.0149882 0.0147223 0)
(0.00947953 0.0145917 0)
(0.00396036 0.0145185 0)
(0.179896 -0.173894 0)
(0.101592 -0.0972906 0)
(0.106391 -0.0353359 0)
(0.0987835 -0.0101476 0)
(0.0911388 0.00308277 0)
(0.0837692 0.0104102 0)
(0.0766174 0.0145491 0)
(0.0696715 0.016826 0)
(0.0629051 0.0179952 0)
(0.0563281 0.0184819 0)
(0.0499528 0.0185632 0)
(0.0437533 0.0184319 0)
(0.0377065 0.0181879 0)
(0.0318138 0.0178834 0)
(0.0260703 0.0175684 0)
(0.0204491 0.0172891 0)
(0.0149151 0.01707 0)
(0.00944125 0.0169207 0)
(0.00404081 0.0167989 0)
(0.00817599 -0.162639 0)
(0.0428395 -0.150964 0)
(0.0775564 -0.154109 0)
(0.113001 -0.15972 0)
(0.149506 -0.167831 0)
(0.187416 -0.178902 0)
(0.227055 -0.193611 0)
(0.268704 -0.212943 0)
(0.312497 -0.238315 0)
(0.358051 -0.271748 0)
(0.402113 -0.316176 0)
(0.444669 -0.366582 0)
(0.480719 -0.515398 0)
(0.492042 -0.236001 0)
(0.282677 0.413995 0)
(0.284579 0.414843 0)
(0.291787 0.371579 0)
(0.293534 0.332333 0)
(0.286073 0.2983 0)
(0.271582 0.274701 0)
(0.255618 0.268334 0)
(0.248426 0.288963 0)
(0.305591 0.365358 0)
(0.00766005 -0.194518 0)
(0.0401482 -0.184556 0)
(0.0725751 -0.188165 0)
(0.105486 -0.194529 0)
(0.139074 -0.203645 0)
(0.173505 -0.215955 0)
(0.208869 -0.232072 0)
(0.245137 -0.252841 0)
(0.282035 -0.279395 0)
(0.318708 -0.313206 0)
(0.351222 -0.356095 0)
(0.37435 -0.40281 0)
(0.409529 -0.537972 0)
(0.368239 -0.0626765 0)
(0.228058 0.440921 0)
(0.248184 0.405186 0)
(0.256981 0.365066 0)
(0.260214 0.33111 0)
(0.259232 0.302739 0)
(0.256095 0.281508 0)
(0.25631 0.269368 0)
(0.270322 0.265228 0)
(0.311869 0.253022 0)
(0.00709545 -0.2242 0)
(0.0371795 -0.215776 0)
(0.067101 -0.219683 0)
(0.0972826 -0.226487 0)
(0.127797 -0.236159 0)
(0.158666 -0.249074 0)
(0.189807 -0.265736 0)
(0.220991 -0.286798 0)
(0.251729 -0.313066 0)
(0.280991 -0.345474 0)
(0.304752 -0.385002 0)
(0.314358 -0.425464 0)
(0.351435 -0.544075 0)
(0.257499 0.142011 0)
(0.193521 0.424785 0)
(0.211295 0.391072 0)
(0.223597 0.357985 0)
(0.230321 0.328292 0)
(0.233849 0.302573 0)
(0.236697 0.280693 0)
(0.242081 0.262022 0)
(0.253971 0.243047 0)
(0.274282 0.214646 0)
(0.0065016 -0.251529 0)
(0.0340503 -0.244472 0)
(0.0613573 -0.248529 0)
(0.0887333 -0.25551 0)
(0.116155 -0.265356 0)
(0.14354 -0.278366 0)
(0.170698 -0.294914 0)
(0.197291 -0.315458 0)
(0.222756 -0.340512 0)
(0.246095 -0.370581 0)
(0.26352 -0.406079 0)
(0.263868 -0.440732 0)
(0.30315 -0.540376 0)
(0.171705 0.298783 0)
(0.169286 0.405957 0)
(0.182135 0.376449 0)
(0.195153 0.348218 0)
(0.203628 0.321945 0)
(0.209511 0.298111 0)
(0.214778 0.275862 0)
(0.220829 0.254216 0)
(0.22874 0.230661 0)
(0.237353 0.201083 0)
(0.00590024 -0.276432 0)
(0.0308677 -0.27057 0)
(0.0555405 -0.274653 0)
(0.0801301 -0.281597 0)
(0.104547 -0.291322 0)
(0.12864 -0.304043 0)
(0.152159 -0.320016 0)
(0.174732 -0.339528 0)
(0.195805 -0.362863 0)
(0.214505 -0.390232 0)
(0.227395 -0.421721 0)
(0.221342 -0.451479 0)
(0.262507 -0.52559 0)
(0.106329 0.363515 0)
(0.144596 0.387758 0)
(0.157468 0.362676 0)
(0.17063 0.337835 0)
(0.179614 0.314288 0)
(0.186224 0.292119 0)
(0.192106 0.270322 0)
(0.197376 0.248094 0)
(0.202237 0.224266 0)
(0.205555 0.197252 0)
(0.00530417 -0.298903 0)
(0.0277185 -0.294081 0)
(0.0498074 -0.298093 0)
(0.071702 -0.304842 0)
(0.0932689 -0.314231 0)
(0.114322 -0.326403 0)
(0.134587 -0.341511 0)
(0.153699 -0.359712 0)
(0.17116 -0.381121 0)
(0.186242 -0.405763 0)
(0.195875 -0.433552 0)
(0.185503 -0.459276 0)
(0.227282 -0.497119 0)
(0.0867935 0.37401 0)
(0.124949 0.369126 0)
(0.136891 0.349435 0)
(0.149236 0.327566 0)
(0.157851 0.306368 0)
(0.164265 0.28584 0)
(0.169854 0.26509 0)
(0.174235 0.243678 0)
(0.177175 0.221045 0)
(0.178247 0.196969 0)
(0.00472423 -0.318993 0)
(0.0246657 -0.31507 0)
(0.0442715 -0.318939 0)
(0.0636094 -0.325383 0)
(0.0825212 -0.334297 0)
(0.100807 -0.345761 0)
(0.118195 -0.359851 0)
(0.134351 -0.376625 0)
(0.148847 -0.396088 0)
(0.161095 -0.418157 0)
(0.168371 -0.442659 0)
(0.155237 -0.465079 0)
(0.196224 -0.446891 0)
(0.0912719 0.372252 0)
(0.11115 0.355502 0)
(0.11953 0.338216 0)
(0.130322 0.318356 0)
(0.137958 0.298956 0)
(0.143748 0.279999 0)
(0.148766 0.260493 0)
(0.15225 0.24036 0)
(0.154266 0.219454 0)
(0.154359 0.19783 0)
(0.00417034 -0.33679 0)
(0.0217558 -0.333643 0)
(0.03901 -0.337323 0)
(0.0559533 -0.343397 0)
(0.0724212 -0.351757 0)
(0.0882092 -0.362436 0)
(0.103069 -0.375453 0)
(0.116703 -0.390798 0)
(0.128753 -0.408407 0)
(0.138757 -0.428136 0)
(0.144309 -0.44978 0)
(0.129607 -0.469513 0)
(0.168437 -0.372331 0)
(0.0852828 0.371618 0)
(0.0971186 0.346607 0)
(0.103608 0.329294 0)
(0.112955 0.310451 0)
(0.119629 0.29245 0)
(0.124543 0.274791 0)
(0.128993 0.256612 0)
(0.131794 0.237774 0)
(0.133277 0.218573 0)
(0.133149 0.198989 0)
(0.00364669 -0.352413 0)
(0.0190137 -0.34994 0)
(0.0340644 -0.353406 0)
(0.0487874 -0.359079 0)
(0.0630198 -0.366853 0)
(0.076567 -0.37673 0)
(0.0892021 -0.388685 0)
(0.100673 -0.402667 0)
(0.110689 -0.418573 0)
(0.118885 -0.436229 0)
(0.123153 -0.455422 0)
(0.107786 -0.472981 0)
(0.142467 -0.271514 0)
(0.0706905 0.363983 0)
(0.0820093 0.338571 0)
(0.0882975 0.321586 0)
(0.0967471 0.303626 0)
(0.102478 0.286802 0)
(0.106646 0.270293 0)
(0.110361 0.253273 0)
(0.112896 0.235814 0)
(0.11395 0.217894 0)
(0.113896 0.200034 0)
(0.00315218 -0.365992 0)
(0.0164551 -0.364104 0)
(0.0294565 -0.367347 0)
(0.0421338 -0.372613 0)
(0.0543268 -0.379803 0)
(0.0658578 -0.388897 0)
(0.0765333 -0.399848 0)
(0.0861378 -0.412577 0)
(0.0944356 -0.42696 0)
(0.101151 -0.442813 0)
(0.104441 -0.45993 0)
(0.0891008 -0.47574 0)
(0.11958 -0.172742 0)
(0.0606482 0.353558 0)
(0.0677398 0.33082 0)
(0.0737335 0.314603 0)
(0.0814742 0.297742 0)
(0.0862979 0.281917 0)
(0.089831 0.266492 0)
(0.0930485 0.250445 0)
(0.094992 0.234032 0)
(0.0962083 0.217413 0)
(0.0961456 0.200698 0)
(0.00269715 -0.377658 0)
(0.0140787 -0.376289 0)
(0.0251849 -0.379309 0)
(0.0359795 -0.38418 0)
(0.046315 -0.390816 0)
(0.0560378 -0.399176 0)
(0.06497 -0.409202 0)
(0.0729402 -0.420804 0)
(0.0797641 -0.433853 0)
(0.0852342 -0.448168 0)
(0.0877729 -0.46355 0)
(0.0730393 -0.477977 0)
(0.0981408 -0.0861179 0)
(0.045069 0.344166 0)
(0.0534504 0.322908 0)
(0.0601928 0.308098 0)
(0.0669497 0.292616 0)
(0.0711707 0.277909 0)
(0.0737864 0.263233 0)
(0.0766298 0.248126 0)
(0.0783183 0.232469 0)
(0.0793165 0.216755 0)
(0.0797131 0.201108 0)
(0.00227528 -0.387557 0)
(0.0118764 -0.38664 0)
(0.0212351 -0.389449 0)
(0.0303019 -0.393951 0)
(0.0389469 -0.400068 0)
(0.0470291 -0.407755 0)
(0.054402 -0.416948 0)
(0.0609206 -0.427556 0)
(0.0664486 -0.439457 0)
(0.0708361 -0.452483 0)
(0.0727614 -0.46645 0)
(0.0590625 -0.479851 0)
(0.0810918 0.0366411 0)
(0.0315707 0.327865 0)
(0.0414717 0.313806 0)
(0.0480318 0.30205 0)
(0.0535794 0.288367 0)
(0.0566113 0.274722 0)
(0.0587492 0.260759 0)
(0.0606443 0.246074 0)
(0.0624088 0.231122 0)
(0.0633729 0.215942 0)
(0.064028 0.201024 0)
(0.00189566 -0.395776 0)
(0.00983629 -0.395295 0)
(0.0175872 -0.397907 0)
(0.0250662 -0.40207 0)
(0.0321653 -0.407714 0)
(0.038754 -0.414794 0)
(0.0447113 -0.423247 0)
(0.0499214 -0.432989 0)
(0.0542737 -0.443913 0)
(0.0576836 -0.45588 0)
(0.0590696 -0.468727 0)
(0.0467656 -0.481411 0)
(0.0694807 0.143897 0)
(0.0279313 0.313279 0)
(0.0338135 0.306153 0)
(0.0377572 0.297567 0)
(0.0413166 0.285631 0)
(0.0426476 0.272588 0)
(0.043832 0.258972 0)
(0.045439 0.244496 0)
(0.0465969 0.229683 0)
(0.048065 0.214961 0)
(0.0489959 0.200427 0)
(0.00154462 -0.402561 0)
(0.00795174 -0.402383 0)
(0.0142135 -0.404819 0)
(0.0202278 -0.408677 0)
(0.025911 -0.413903 0)
(0.0311426 -0.420441 0)
(0.0358044 -0.428235 0)
(0.0398072 -0.437216 0)
(0.0430601 -0.447308 0)
(0.0455198 -0.458421 0)
(0.0463669 -0.470429 0)
(0.0358079 -0.482721 0)
(0.0574267 0.205858 0)
(0.027649 0.306538 0)
(0.0288285 0.30245 0)
(0.0291719 0.295942 0)
(0.0292329 0.284934 0)
(0.0290381 0.272006 0)
(0.028777 0.257935 0)
(0.0298902 0.243203 0)
(0.0312668 0.228265 0)
(0.0327714 0.213532 0)
(0.0344052 0.199295 0)
(0.00110014 -0.407744 0)
(0.00623629 -0.407986 0)
(0.0110879 -0.410278 0)
(0.0157625 -0.413867 0)
(0.0201396 -0.418716 0)
(0.0241196 -0.424774 0)
(0.0276043 -0.43198 0)
(0.0304751 -0.440275 0)
(0.0326575 -0.449632 0)
(0.0341231 -0.460035 0)
(0.0343207 -0.471463 0)
(0.0258426 -0.483838 0)
(0.0449221 0.241972 0)
(0.0281848 0.303639 0)
(0.0255441 0.303112 0)
(0.0211788 0.298328 0)
(0.0169698 0.287049 0)
(0.0141751 0.272968 0)
(0.0132721 0.257733 0)
(0.0137998 0.241998 0)
(0.0154582 0.226521 0)
(0.0176675 0.211593 0)
(0.0199688 0.197391 0)
(0.000858555 -0.411967 0)
(0.00453931 -0.412593 0)
(0.0081698 -0.414717 0)
(0.0115959 -0.418097 0)
(0.0147701 -0.422633 0)
(0.0176122 -0.428278 0)
(0.0200049 -0.43496 0)
(0.0218339 -0.442624 0)
(0.0229641 -0.451269 0)
(0.023306 -0.460993 0)
(0.022511 -0.471978 0)
(0.0164385 -0.484666 0)
(0.0409861 0.248348 0)
(0.0351182 0.304897 0)
(0.0251723 0.310735 0)
(0.0122297 0.306453 0)
(0.00284284 0.292719 0)
(-0.00262786 0.27563 0)
(-0.00435466 0.25791 0)
(-0.00323223 0.240559 0)
(-0.000805711 0.224146 0)
(0.00227022 0.208808 0)
(0.0056605 0.194588 0)
(0.000564607 -0.414238 0)
(0.00302398 -0.413789 0)
(0.00547028 -0.415819 0)
(0.00774768 -0.41901 0)
(0.00984622 -0.423257 0)
(0.0116942 -0.428513 0)
(0.0131883 -0.434677 0)
(0.0141736 -0.441657 0)
(0.0144113 -0.449402 0)
(0.0135147 -0.458154 0)
(0.0107586 -0.468684 0)
(0.00641983 -0.480607 0)
(0.0513485 0.207103 0)
(0.0551814 0.316422 0)
(0.0268252 0.331786 0)
(-0.000328999 0.323081 0)
(-0.0160001 0.302089 0)
(-0.0226508 0.27909 0)
(-0.023745 0.257533 0)
(-0.0215131 0.237995 0)
(-0.0175837 0.220538 0)
(-0.0130233 0.204878 0)
(-0.00853064 0.190723 0)
(9.3546e-05 -0.411146 0)
(0.00189537 -0.426133 0)
(0.00346887 -0.428132 0)
(0.00494934 -0.431256 0)
(0.00640201 -0.435462 0)
(0.00775743 -0.440618 0)
(0.00892977 -0.446584 0)
(0.00980347 -0.453152 0)
(0.00995238 -0.460056 0)
(0.00849409 -0.466912 0)
(0.00236022 -0.472958 0)
(-0.0125884 -0.466063 0)
(-0.0691935 0.0792598 0)
(0.119299 0.366259 0)
(0.0212529 0.378986 0)
(-0.0254542 0.349419 0)
(-0.0440306 0.313032 0)
(-0.0485323 0.281317 0)
(-0.0462673 0.255158 0)
(-0.0409292 0.233457 0)
(-0.0347144 0.215153 0)
(-0.028234 0.199385 0)
(-0.0219944 0.185553 0)
(0.0109212 -0.43304 0)
(-0.00175 -0.371732 0)
(-0.00250626 -0.373596 0)
(-0.00438628 -0.376432 0)
(-0.00625761 -0.380166 0)
(-0.00872754 -0.384706 0)
(-0.0115867 -0.389881 0)
(-0.0152701 -0.395516 0)
(-0.0193767 -0.40105 0)
(-0.0227918 -0.405494 0)
(-0.0275692 -0.414276 0)
(0.0357026 -0.528928 0)
(0.267279 -0.333014 0)
(0.192857 0.583959 0)
(-0.0361265 0.465075 0)
(-0.0801819 0.377789 0)
(-0.0865414 0.318546 0)
(-0.0808713 0.277836 0)
(-0.0717811 0.248323 0)
(-0.0617081 0.225565 0)
(-0.0519699 0.207219 0)
(-0.0429733 0.191902 0)
(-0.0349159 0.17879 0)
(0.00167001 -0.380117 0)
(-0.0164432 -0.462376 0)
(-0.0243762 -0.464628 0)
(-0.0428935 -0.467588 0)
(-0.0623791 -0.467552 0)
(-0.0855217 -0.469815 0)
(-0.112148 -0.472531 0)
(-0.142274 -0.476021 0)
(-0.170401 -0.480448 0)
(-0.186232 -0.499295 0)
(-0.172364 -0.592963 0)
(-0.126315 -0.672556 0)
(-0.225765 -0.102308 0)
(-0.371099 0.749086 0)
(-0.22546 0.501864 0)
(-0.171692 0.373423 0)
(-0.140703 0.305989 0)
(-0.117145 0.263704 0)
(-0.0980417 0.23474 0)
(-0.0820846 0.213166 0)
(-0.0686002 0.196198 0)
(-0.0569139 0.18219 0)
(-0.0468361 0.170289 0)
(-0.00866229 -0.386075 0)
(-0.0140534 -0.40932 0)
(-0.0346105 -0.403232 0)
(-0.0520524 -0.398442 0)
(-0.0736339 -0.398833 0)
(-0.0980709 -0.399515 0)
(-0.125453 -0.400425 0)
(-0.157483 -0.402483 0)
(-0.194687 -0.409409 0)
(-0.244859 -0.425938 0)
(-0.331125 -0.44108 0)
(-0.548652 -0.420882 0)
(-0.775531 -0.0770709 0)
(-0.611207 0.368866 0)
(-0.36892 0.361001 0)
(-0.2518 0.310358 0)
(-0.188859 0.267348 0)
(-0.149389 0.236426 0)
(-0.121611 0.213798 0)
(-0.10032 0.196286 0)
(-0.0832497 0.182101 0)
(-0.0692104 0.170268 0)
(-0.0574521 0.16016 0)
(0.00172907 -0.372506 0)
(-0.0290877 -0.374487 0)
(-0.049804 -0.369182 0)
(-0.073176 -0.365259 0)
(-0.0980077 -0.361521 0)
(-0.126014 -0.357689 0)
(-0.156883 -0.353555 0)
(-0.192683 -0.348235 0)
(-0.237541 -0.34246 0)
(-0.297196 -0.331431 0)
(-0.387143 -0.306339 0)
(-0.496855 -0.239536 0)
(-0.567418 -0.0429034 0)
(-0.489538 0.155649 0)
(-0.370518 0.220771 0)
(-0.27836 0.226418 0)
(-0.214893 0.215196 0)
(-0.17081 0.200892 0)
(-0.138715 0.187491 0)
(-0.114283 0.175712 0)
(-0.0950798 0.165554 0)
(-0.0793308 0.15662 0)
(-0.0662506 0.148684 0)
(-0.00661918 -0.340321 0)
(-0.0336639 -0.355361 0)
(-0.0629924 -0.350297 0)
(-0.0888697 -0.345478 0)
(-0.117094 -0.340852 0)
(-0.146526 -0.335506 0)
(-0.179021 -0.328452 0)
(-0.215924 -0.31825 0)
(-0.258766 -0.302135 0)
(-0.309475 -0.277061 0)
(-0.365545 -0.233853 0)
(-0.423489 -0.166192 0)
(-0.452503 -0.0505699 0)
(-0.410806 0.0693856 0)
(-0.340307 0.132157 0)
(-0.274095 0.157599 0)
(-0.220935 0.164579 0)
(-0.180048 0.163513 0)
(-0.148331 0.159136 0)
(-0.123401 0.153582 0)
(-0.103268 0.147652 0)
(-0.086752 0.141813 0)
(-0.0730798 0.136318 0)
(-0.00651483 -0.309445 0)
(-0.0359595 -0.327918 0)
(-0.062896 -0.324096 0)
(-0.0899261 -0.319252 0)
(-0.116988 -0.312995 0)
(-0.145974 -0.305163 0)
(-0.176949 -0.294891 0)
(-0.210097 -0.280498 0)
(-0.246317 -0.260329 0)
(-0.284581 -0.231021 0)
(-0.322426 -0.188314 0)
(-0.35312 -0.130743 0)
(-0.365393 -0.0550699 0)
(-0.343223 0.0216943 0)
(-0.300942 0.0746359 0)
(-0.25552 0.105451 0)
(-0.214656 0.121903 0)
(-0.179936 0.129546 0)
(-0.15112 0.131878 0)
(-0.127468 0.131399 0)
(-0.107913 0.129414 0)
(-0.0915375 0.126696 0)
(-0.0777333 0.123566 0)
(-0.0056465 -0.283343 0)
(-0.0324154 -0.300037 0)
(-0.0578391 -0.296222 0)
(-0.0829682 -0.290539 0)
(-0.109339 -0.283409 0)
(-0.135751 -0.274133 0)
(-0.163454 -0.261971 0)
(-0.192456 -0.246352 0)
(-0.221584 -0.224743 0)
(-0.250759 -0.196227 0)
(-0.276708 -0.159142 0)
(-0.295033 -0.11205 0)
(-0.300592 -0.0578738 0)
(-0.288126 -0.00450507 0)
(-0.262814 0.0380946 0)
(-0.232275 0.0684558 0)
(-0.201622 0.0882899 0)
(-0.173432 0.100127 0)
(-0.148832 0.107084 0)
(-0.127566 0.110629 0)
(-0.109334 0.111941 0)
(-0.0936808 0.111856 0)
(-0.080361 0.110891 0)
(-0.00536644 -0.260165 0)
(-0.0295752 -0.275118 0)
(-0.0528895 -0.271482 0)
(-0.0770654 -0.266088 0)
(-0.100236 -0.258377 0)
(-0.124835 -0.248728 0)
(-0.148872 -0.236067 0)
(-0.173131 -0.219364 0)
(-0.197481 -0.198815 0)
(-0.219418 -0.172228 0)
(-0.238108 -0.139718 0)
(-0.250281 -0.101708 0)
(-0.253296 -0.060448 0)
(-0.245755 -0.0202712 0)
(-0.229644 0.0144623 0)
(-0.208537 0.041861 0)
(-0.185753 0.0617684 0)
(-0.163649 0.0761566 0)
(-0.142998 0.0858234 0)
(-0.124455 0.0919044 0)
(-0.108084 0.0957223 0)
(-0.0936449 0.097787 0)
(-0.0811295 0.0987005 0)
(-0.00493486 -0.238811 0)
(-0.0271227 -0.252612 0)
(-0.0483974 -0.249068 0)
(-0.0699962 -0.24339 0)
(-0.0918213 -0.236005 0)
(-0.11259 -0.22576 0)
(-0.134308 -0.213244 0)
(-0.155 -0.197671 0)
(-0.174335 -0.177855 0)
(-0.191867 -0.154247 0)
(-0.205686 -0.126304 0)
(-0.214463 -0.0951114 0)
(-0.216677 -0.0622369 0)
(-0.21196 -0.0303552 0)
(-0.201211 -0.00156198 0)
(-0.1863 0.0225597 0)
(-0.169396 0.0420228 0)
(-0.151898 0.0568398 0)
(-0.134953 0.0675815 0)
(-0.119264 0.075574 0)
(-0.104765 0.0810845 0)
(-0.091807 0.084821 0)
(-0.080301 0.0872795 0)
(-0.00486731 -0.219479 0)
(-0.0238143 -0.231535 0)
(-0.0442256 -0.228133 0)
(-0.0631964 -0.222704 0)
(-0.0826131 -0.215163 0)
(-0.101907 -0.205837 0)
(-0.119892 -0.193656 0)
(-0.137427 -0.178683 0)
(-0.153588 -0.160867 0)
(-0.167567 -0.139852 0)
(-0.178341 -0.115904 0)
(-0.185219 -0.0900677 0)
(-0.187079 -0.0629996 0)
(-0.18415 -0.0367737 0)
(-0.176805 -0.0126009 0)
(-0.166084 0.00870178 0)
(-0.153294 0.0266381 0)
(-0.139559 0.0410334 0)
(-0.125862 0.052662 0)
(-0.1125 0.0614835 0)
(-0.100029 0.068137 0)
(-0.0885641 0.0731793 0)
(-0.0781185 0.0767505 0)
(-0.00384119 -0.202065 0)
(-0.0222021 -0.213108 0)
(-0.0392645 -0.209579 0)
(-0.0572765 -0.204515 0)
(-0.0741624 -0.197515 0)
(-0.0905174 -0.188239 0)
(-0.106658 -0.176955 0)
(-0.121646 -0.163335 0)
(-0.134961 -0.147116 0)
(-0.14636 -0.128465 0)
(-0.155289 -0.108113 0)
(-0.160654 -0.0858393 0)
(-0.162581 -0.0633163 0)
(-0.160794 -0.0411806 0)
(-0.155662 -0.02047 0)
(-0.147862 -0.00176583 0)
(-0.138086 0.0146611 0)
(-0.127304 0.0287254 0)
(-0.116073 0.0401939 0)
(-0.104972 0.0494659 0)
(-0.0943011 0.0569577 0)
(-0.0841741 0.0626964 0)
(-0.0749393 0.0672178 0)
(-0.00369575 -0.186405 0)
(-0.0193412 -0.196056 0)
(-0.0356028 -0.193056 0)
(-0.0506157 -0.188112 0)
(-0.065834 -0.181436 0)
(-0.0805801 -0.173023 0)
(-0.0942889 -0.162587 0)
(-0.106914 -0.150018 0)
(-0.118389 -0.135556 0)
(-0.128008 -0.119355 0)
(-0.135183 -0.101267 0)
(-0.139897 -0.0824171 0)
(-0.141757 -0.0631484 0)
(-0.140707 -0.044054 0)
(-0.137103 -0.0260498 0)
(-0.131364 -0.00952023 0)
(-0.123906 0.00551663 0)
(-0.115338 0.0186663 0)
(-0.106243 0.029907 0)
(-0.0969889 0.0394178 0)
(-0.0878239 0.0471472 0)
(-0.0791262 0.0535486 0)
(-0.0709031 0.0587235 0)
(-0.00308797 -0.172596 0)
(-0.0176024 -0.181195 0)
(-0.0311563 -0.178045 0)
(-0.0450804 -0.173499 0)
(-0.0582294 -0.167293 0)
(-0.0708846 -0.159399 0)
(-0.0828565 -0.149802 0)
(-0.0938925 -0.138568 0)
(-0.103578 -0.125661 0)
(-0.111601 -0.111141 0)
(-0.117833 -0.0956079 0)
(-0.121904 -0.0792608 0)
(-0.123632 -0.0624053 0)
(-0.123212 -0.0459626 0)
(-0.12068 -0.0301135 0)
(-0.116409 -0.0153054 0)
(-0.11077 -0.00178705 0)
(-0.103937 0.0105901 0)
(-0.0965066 0.0215086 0)
(-0.0887529 0.0308129 0)
(-0.0810382 0.0388082 0)
(-0.0734667 0.045575 0)
(-0.0662469 0.0511401 0)
(-0.00296882 -0.160402 0)
(-0.0153934 -0.167933 0)
(-0.0276552 -0.165231 0)
(-0.0395084 -0.160978 0)
(-0.0511803 -0.155281 0)
(-0.0622355 -0.14805 0)
(-0.0726238 -0.139318 0)
(-0.0820755 -0.129095 0)
(-0.0903281 -0.117447 0)
(-0.0972753 -0.104687 0)
(-0.102592 -0.0909417 0)
(-0.106101 -0.0764186 0)
(-0.107893 -0.061839 0)
(-0.107813 -0.0472833 0)
(-0.106046 -0.0331084 0)
(-0.102855 -0.0197666 0)
(-0.0984947 -0.00741245 0)
(-0.0930831 0.00410864 0)
(-0.0869726 0.0144612 0)
(-0.080546 0.0236646 0)
(-0.0739758 0.0316958 0)
(-0.0674363 0.0385441 0)
(-0.0612007 0.0444866 0)
(-0.00243941 -0.149571 0)
(-0.0134518 -0.156522 0)
(-0.024097 -0.153863 0)
(-0.0345923 -0.149906 0)
(-0.0446327 -0.144588 0)
(-0.0542438 -0.137951 0)
(-0.0631896 -0.12998 0)
(-0.0712997 -0.120716 0)
(-0.078471 -0.110351 0)
(-0.0844146 -0.0989489 0)
(-0.0889848 -0.0866682 0)
(-0.0921947 -0.0739839 0)
(-0.0938545 -0.0609805 0)
(-0.0940129 -0.0479279 0)
(-0.0928407 -0.0352553 0)
(-0.0904508 -0.0231378 0)
(-0.0870385 -0.0117528 0)
(-0.0827967 -0.00120098 0)
(-0.0777741 0.00870436 0)
(-0.0723915 0.0176332 0)
(-0.0668192 0.0255306 0)
(-0.061262 0.0325494 0)
(-0.0558115 0.0386682 0)
(-0.00217091 -0.140473 0)
(-0.011655 -0.146302 0)
(-0.0208851 -0.143859 0)
(-0.0298359 -0.140137 0)
(-0.0385722 -0.135198 0)
(-0.0468571 -0.129055 0)
(-0.0545506 -0.121752 0)
(-0.0615688 -0.113407 0)
(-0.0676921 -0.104065 0)
(-0.0727839 -0.0938276 0)
(-0.076801 -0.0829635 0)
(-0.0795962 -0.0715865 0)
(-0.0811508 -0.0599065 0)
(-0.0815422 -0.0482636 0)
(-0.0807904 -0.0367994 0)
(-0.0790149 -0.0257106 0)
(-0.0763675 -0.0152284 0)
(-0.072997 -0.00543024 0)
(-0.068899 0.00388286 0)
(-0.0643819 0.0125058 0)
(-0.0596891 0.0203473 0)
(-0.0549289 0.0273859 0)
(-0.050253 0.0335882 0)
(-0.00169001 -0.132453 0)
(-0.0098693 -0.137728 0)
(-0.017827 -0.135442 0)
(-0.025653 -0.132022 0)
(-0.0331071 -0.127453 0)
(-0.0401638 -0.121787 0)
(-0.0467562 -0.115112 0)
(-0.0526984 -0.107467 0)
(-0.057881 -0.0989348 0)
(-0.0622478 -0.0896806 0)
(-0.0656882 -0.079825 0)
(-0.0681464 -0.0695277 0)
(-0.0696338 -0.0590111 0)
(-0.0701245 -0.0484038 0)
(-0.0696759 -0.0378923 0)
(-0.0683848 -0.0277065 0)
(-0.0663332 -0.017977 0)
(-0.0636294 -0.00880678 0)
(-0.0603351 -0.00015506 0)
(-0.0565363 0.00825037 0)
(-0.052583 0.0159783 0)
(-0.048567 0.0229776 0)
(-0.0446237 0.0292526 0)
(-0.00154876 -0.125833 0)
(-0.00843126 -0.130221 0)
(-0.0152035 -0.128082 0)
(-0.0217383 -0.12487 0)
(-0.0280575 -0.120643 0)
(-0.0340269 -0.115436 0)
(-0.0395249 -0.109277 0)
(-0.0444945 -0.102247 0)
(-0.0488692 -0.0944631 0)
(-0.0525555 -0.0860241 0)
(-0.0554866 -0.0770443 0)
(-0.0576313 -0.0676688 0)
(-0.0589506 -0.058011 0)
(-0.0594718 -0.048245 0)
(-0.0592473 -0.038576 0)
(-0.0583145 -0.0291447 0)
(-0.0567374 -0.0200704 0)
(-0.0546028 -0.0114715 0)
(-0.052002 -0.00339149 0)
(-0.0488612 0.00469292 0)
(-0.0455687 0.0123194 0)
(-0.0422387 0.0193063 0)
(-0.0389356 0.0255918 0)
(-0.00122815 -0.120142 0)
(-0.00701784 -0.123855 0)
(-0.0126816 -0.121816 0)
(-0.0181614 -0.118817 0)
(-0.0233813 -0.114871 0)
(-0.028299 -0.11002 0)
(-0.0328515 -0.104331 0)
(-0.0369652 -0.0978715 0)
(-0.040571 -0.0907128 0)
(-0.0436119 -0.0829425 0)
(-0.04604 -0.0746648 0)
(-0.0478142 -0.0659836 0)
(-0.0489407 -0.0570382 0)
(-0.0494463 -0.0479992 0)
(-0.0493464 -0.039006 0)
(-0.0486712 -0.0301891 0)
(-0.0474787 -0.0216733 0)
(-0.0458301 -0.013547 0)
(-0.0438099 -0.0058957 0)
(-0.0413408 0.00174792 0)
(-0.0386564 0.00932715 0)
(-0.0359361 0.0162701 0)
(-0.0332199 0.0225374 0)
(-0.00109819 -0.115596 0)
(-0.0059208 -0.118783 0)
(-0.0104129 -0.116907 0)
(-0.01483 -0.114108 0)
(-0.019068 -0.110431 0)
(-0.0230419 -0.105915 0)
(-0.0266985 -0.100603 0)
(-0.0299949 -0.0945576 0)
(-0.0328816 -0.0878543 0)
(-0.0353092 -0.0805793 0)
(-0.0372409 -0.0728245 0)
(-0.0386642 -0.0646985 0)
(-0.0395838 -0.0563272 0)
(-0.0400034 -0.0478361 0)
(-0.0399428 -0.0393533 0)
(-0.0394371 -0.0310094 0)
(-0.038529 -0.0229098 0)
(-0.0372766 -0.0151407 0)
(-0.0357523 -0.00779185 0)
(-0.0339432 -0.000654676 0)
(-0.0318277 0.00691624 0)
(-0.0296752 0.0138228 0)
(-0.0275055 0.0200541 0)
(-0.000849804 -0.111842 0)
(-0.00466224 -0.114724 0)
(-0.00820564 -0.112957 0)
(-0.0116569 -0.110313 0)
(-0.0149352 -0.106826 0)
(-0.0180104 -0.102541 0)
(-0.0208493 -0.0975124 0)
(-0.0234051 -0.0918043 0)
(-0.0256328 -0.0854873 0)