/*--------------------------------*- C++ -*----------------------------------*\
| =========                 |                                                 |
| \\      /  F ield         | OpenFOAM: The Open Source CFD Toolbox           |
|  \\    /   O peration     | Version:  v1912                                 |
|   \\  /    A nd           | Website:  www.openfoam.com                      |
|    \\/     M anipulation  |                                                 |
\*---------------------------------------------------------------------------*/
FoamFile
{
    version     2.0;
    format      ascii;
    class       surfaceScalarField;
    location    "0.6";
    object      alphaPhi0.water;
}
// * * * * * * * * * * * * * * * * * * * * * * * * * * * * * * * * * * * * * //

dimensions      [0 3 -1 0 0 0 0];
oriented        oriented;


internalField   nonuniform List<scalar> 
17936
(
-1.2414e-06
3.02819e-06
-1.78679e-06
2.48403e-06
-2.9449e-06
4.60869e-07
2.61912e-06
-1.84972e-06
-7.69392e-07
8.30643e-07
4.01991e-07
-1.23263e-06
-1.80422e-06
3.19794e-06
-1.39372e-06
-4.40435e-06
5.31361e-06
-9.09258e-07
-5.90086e-06
6.19543e-06
-2.94567e-07
-6.23617e-06
6.06358e-06
1.72593e-07
-5.74434e-06
5.34956e-06
3.94782e-07
-4.93292e-06
4.52422e-06
4.08707e-07
-4.13355e-06
3.7626e-06
3.70953e-07
-3.40902e-06
3.06891e-06
3.40116e-07
-2.73599e-06
2.40013e-06
3.35854e-07
-2.04474e-06
1.64293e-06
4.01813e-07
-1.15294e-06
5.12632e-07
6.40307e-07
3.57683e-07
-1.55378e-06
1.1961e-06
3.13619e-06
-4.86853e-06
1.73236e-06
5.92555e-06
-6.31356e-06
8.42573e-07
8.048e-06
-9.97997e-06
1.21472e-06
8.04288e-06
-3.67123e-06
-4.37108e-06
6.74406e-07
-3.03896e-06
2.33734e-06
1.04226e-05
-1.58493e-05
5.40379e-06
1.34945e-05
-5.81314e-06
-7.7143e-06
-4.76208e-06
6.34204e-06
-1.57996e-06
2.64495e-06
-2.75954e-06
-5.99421e-07
7.1401e-07
2.32152e-06
-1.62594e-06
1.55022e-06
-2.24579e-06
7.86846e-07
2.81079e-07
2.42653e-06
-3.49446e-06
-1.62024e-06
3.0295e-06
2.80688e-06
-4.21614e-06
-4.27431e-06
5.22039e-06
1.8544e-06
-2.80048e-06
-5.8457e-06
6.19196e-06
6.45677e-07
-9.91937e-07
-6.31751e-06
6.28287e-06
-1.75291e-07
2.09929e-07
-6.13468e-06
5.9075e-06
-6.13821e-07
8.41e-07
-5.62447e-06
5.30524e-06
-7.62648e-07
1.08188e-06
-4.9683e-06
4.62936e-06
-7.49874e-07
1.08882e-06
-4.29972e-06
3.986e-06
-6.81148e-07
9.94867e-07
-3.69033e-06
3.41165e-06
-6.28288e-07
9.06967e-07
-3.14708e-06
2.89349e-06
-6.65542e-07
9.19131e-07
-2.65048e-06
2.4247e-06
-9.51193e-07
1.17697e-06
-2.23053e-06
2.07068e-06
-1.88683e-06
2.04668e-06
-1.86413e-06
1.29804e-06
-3.59496e-06
4.16105e-06
1.29204e-07
-2.51652e-06
-3.64709e-06
6.08223e-06
4.74305e-06
-6.64295e-06
-1.77529e-06
3.62594e-06
8.14094e-06
-8.61418e-06
6.59827e-06
-6.12466e-06
9.77782e-06
-1.29394e-05
-7.00711e-06
1.01814e-05
1.54972e-05
-1.43813e-05
-6.50247e-06
5.43756e-06
1.18628e-05
-6.88289e-06
1.45072e-05
-1.9154e-05
-7.76096e-06
9.00618e-06
-1.24522e-06
2.22299e-06
-2.27482e-06
-8.0146e-07
8.53287e-07
2.05407e-06
-1.99653e-06
2.72823e-06
-2.78577e-06
1.83243e-06
-1.10341e-06
4.41573e-06
-5.14475e-06
-2.9626e-07
1.97869e-06
5.68523e-06
-7.36767e-06
-3.41301e-06
4.42737e-06
3.76746e-06
-4.78181e-06
-5.0663e-06
5.42372e-06
1.34301e-06
-1.70043e-06
-5.57727e-06
5.58512e-06
-2.3063e-07
2.2278e-07
-5.49122e-06
5.32769e-06
-1.04877e-06
1.21231e-06
-5.11805e-06
4.87979e-06
-1.36813e-06
1.60639e-06
-4.62627e-06
4.36727e-06
-1.39031e-06
1.64932e-06
-4.10911e-06
3.85549e-06
-1.27987e-06
1.5335e-06
-3.60803e-06
3.36686e-06
-1.1691e-06
1.41026e-06
-3.13114e-06
2.89937e-06
-1.16797e-06
1.39974e-06
-2.67084e-06
2.44788e-06
-1.41737e-06
1.64033e-06
-2.2405e-06
2.07842e-06
-2.1809e-06
2.34298e-06
-2.037e-06
2.24371e-06
-3.97765e-06
3.77093e-06
-2.7381e-06
3.3227e-06
-6.75313e-06
6.16853e-06
-3.55364e-06
2.6535e-06
-5.61018e-06
6.51032e-06
-1.33624e-07
-3.99963e-06
3.03619e-06
1.09706e-06
6.73508e-06
-6.40169e-06
-1.13672e-05
1.09761e-05
5.01984e-06
-3.81642e-06
-4.08915e-06
2.88553e-06
3.31811e-06
-2.76181e-06
2.15617e-05
-2.32963e-05
-1.00462e-05
1.08306e-05
-7.84381e-07
1.70648e-06
-1.94577e-06
-9.43085e-07
1.18237e-06
2.61432e-06
-3.60679e-06
2.26569e-06
-1.27322e-06
4.17586e-06
-3.71673e-06
5.7127e-06
-6.17182e-06
2.04668e-06
2.86149e-07
9.40339e-06
-1.17362e-05
-2.29261e-06
3.5231e-06
5.88655e-06
-7.11704e-06
-4.16083e-06
4.48661e-06
2.05203e-06
-2.3778e-06
-4.65484e-06
4.72359e-06
-1.82732e-07
1.13979e-07
-4.72166e-06
4.66708e-06
-1.32301e-06
1.37759e-06
-4.57332e-06
4.44975e-06
-1.78863e-06
1.9122e-06
-4.30333e-06
4.13935e-06
-1.86116e-06
2.02513e-06
-3.96157e-06
3.77291e-06
-1.75397e-06
1.94263e-06
-3.57627e-06
3.37499e-06
-1.63031e-06
1.83159e-06
-3.17278e-06
2.97349e-06
-1.61391e-06
1.8132e-06
-2.78218e-06
2.60656e-06
-1.83745e-06
2.01307e-06
-2.45892e-06
2.35779e-06
-2.47837e-06
2.5795e-06
-2.32784e-06
2.40017e-06
-3.67913e-06
3.6068e-06
-2.63632e-06
3.16761e-06
-5.37361e-06
4.84232e-06
-4.04509e-06
4.7757e-06
-6.26132e-06
5.53071e-06
-4.60087e-06
3.21946e-06
-4.14053e-06
5.52193e-06
-1.26428e-06
1.6575e-06
-1.05019e-05
1.03101e-05
-3.72604e-06
4.04943e-06
-1.85272e-06
1.52912e-06
-3.35516e-06
1.69419e-06
2.25879e-05
-2.09048e-05
-1.12893e-05
1.13441e-05
-5.48679e-08
9.38326e-07
-1.44076e-06
-1.60939e-06
2.11182e-06
2.29605e-06
-2.99167e-06
1.91051e-07
5.04572e-07
3.10135e-06
-2.4718e-06
6.62674e-06
-7.25629e-06
1.24702e-06
3.00611e-07
1.39469e-05
-1.54945e-05
-1.88403e-06
3.00115e-06
8.41689e-06
-9.53401e-06
-3.55033e-06
3.78107e-06
2.66e-06
-2.89074e-06
-3.90547e-06
4.00315e-06
-2.54057e-08
-7.22785e-08
-4.08146e-06
4.13357e-06
-1.37655e-06
1.32444e-06
-4.15298e-06
4.13772e-06
-1.97882e-06
1.99409e-06
-4.08819e-06
4.00602e-06
-2.1447e-06
2.22686e-06
-3.8932e-06
3.75273e-06
-2.10384e-06
2.24431e-06
-3.5899e-06
3.41253e-06
-2.01829e-06
2.19566e-06
-3.22937e-06
3.04885e-06
-2.00122e-06
2.18173e-06
-2.87996e-06
2.73341e-06
-2.17208e-06
2.31863e-06
-2.62244e-06
2.56334e-06
-2.65591e-06
2.71501e-06
-2.5757e-06
2.6798e-06
-3.5148e-06
3.4107e-06
-2.88536e-06
3.18321e-06
-4.49769e-06
4.19984e-06
-3.5452e-06
3.94602e-06
-4.9062e-06
4.50537e-06
-4.31208e-06
4.87024e-06
-5.51824e-06
4.96009e-06
-5.74134e-06
6.92946e-06
-9.72631e-06
8.53819e-06
-8.53712e-06
8.75359e-06
-1.46813e-06
1.24791e-06
-7.15606e-06
3.95467e-06
1.8188e-05
-1.49866e-05
-1.07853e-05
9.51881e-06
1.26646e-06
-6.37351e-07
6.05929e-07
-2.4772e-06
2.50862e-06
-8.41903e-07
1.74675e-06
-5.12972e-07
-3.91874e-07
-3.27958e-06
4.76259e-06
8.32553e-06
-9.80854e-06
-5.36493e-06
4.82799e-06
1.6028e-05
-1.54911e-05
-3.87693e-06
3.35121e-06
1.00313e-05
-9.5056e-06
-3.29104e-06
3.39372e-06
3.06692e-06
-3.16961e-06
-3.51e-06
3.63064e-06
1.73844e-07
-2.94482e-07
-3.76177e-06
3.88803e-06
-1.23048e-06
1.10422e-06
-3.98675e-06
4.04315e-06
-1.96733e-06
1.91094e-06
-4.05214e-06
4.01383e-06
-2.28136e-06
2.31967e-06
-3.92995e-06
3.80396e-06
-2.37249e-06
2.49848e-06
-3.64475e-06
3.4664e-06
-2.36961e-06
2.54796e-06
-3.2833e-06
3.10709e-06
-2.35801e-06
2.53422e-06
-2.94855e-06
2.81919e-06
-2.45565e-06
2.58501e-06
-2.73074e-06
2.69499e-06
-2.76135e-06
2.7971e-06
-2.72508e-06
2.83362e-06
-3.30318e-06
3.19464e-06
-3.0271e-06
3.30088e-06
-3.91169e-06
3.63791e-06
-3.62575e-06
3.95032e-06
-4.19115e-06
3.86658e-06
-4.2537e-06
4.67019e-06
-4.42414e-06
4.00766e-06
-5.72273e-06
7.47567e-06
-6.74698e-06
4.99404e-06
-9.15066e-06
9.42489e-06
-1.07331e-06
7.99069e-07
-7.76404e-06
4.46696e-06
1.15551e-05
-8.258e-06
-7.50807e-06
4.82385e-06
2.68423e-06
-3.32864e-06
4.26646e-06
-2.11933e-06
1.18151e-06
-5.87555e-06
8.95431e-06
2.27601e-06
-5.35477e-06
-1.24896e-05
1.4289e-05
1.17556e-05
-1.3555e-05
-1.3202e-05
1.00661e-05
1.37249e-05
-1.0589e-05
-6.64271e-06
4.35906e-06
7.88654e-06
-5.60289e-06
-3.40178e-06
3.20875e-06
3.15001e-06
-2.95697e-06
-3.30785e-06
3.50219e-06
4.61805e-07
-6.56144e-07
-3.72279e-06
3.93044e-06
-9.41993e-07
7.3435e-07
-4.08931e-06
4.18483e-06
-1.83447e-06
1.73895e-06
-4.21748e-06
4.1915e-06
-2.35156e-06
2.37754e-06
-4.10807e-06
3.96792e-06
-2.63181e-06
2.77196e-06
-3.78246e-06
3.57391e-06
-2.74057e-06
2.94911e-06
-3.36237e-06
3.16181e-06
-2.71881e-06
2.91937e-06
-2.98637e-06
2.85198e-06
-2.71145e-06
2.84583e-06
-2.77051e-06
2.74833e-06
-2.82332e-06
2.84549e-06
-2.79173e-06
2.90584e-06
-3.08422e-06
2.9701e-06
-3.09031e-06
3.33946e-06
-3.37912e-06
3.12997e-06
-3.64343e-06
3.98971e-06
-3.52312e-06
3.17683e-06
-4.3769e-06
4.82131e-06
-3.60259e-06
3.15818e-06
-5.41809e-06
6.25265e-06
-3.72355e-06
2.88899e-06
-7.14633e-06
7.34829e-06
-4.83476e-07
2.81514e-07
-6.29969e-06
3.96216e-06
5.40873e-06
-3.07119e-06
-1.67217e-06
-1.62426e-06
3.29644e-06
-6.2823e-06
9.12758e-06
4.66357e-07
-3.31163e-06
-1.34639e-05
1.7914e-05
9.80945e-06
-1.42591e-05
-1.82915e-05
1.4503e-05
1.36043e-05
-8.82467e-06
-1.06007e-05
7.88834e-06
6.55756e-06
-3.42416e-06
-6.16665e-06
5.39458e-06
3.56747e-06
-2.79539e-06
-4.89743e-06
4.50816e-06
2.60387e-06
-2.21459e-06
-4.28641e-06
4.23195e-06
7.67502e-07
-7.13042e-07
-4.28049e-06
4.35367e-06
-5.26467e-07
4.53286e-07
-4.39848e-06
4.39405e-06
-1.64538e-06
1.6498e-06
-4.34411e-06
4.25832e-06
-2.40288e-06
2.48867e-06
-4.13592e-06
3.96646e-06
-2.90923e-06
3.07869e-06
-3.76543e-06
3.56575e-06
-3.15472e-06
3.35439e-06
-3.3809e-06
3.2083e-06
-3.12174e-06
3.29434e-06
-3.05046e-06
2.92098e-06
-2.99256e-06
3.12203e-06
-2.8299e-06
2.78561e-06
-2.87772e-06
2.92201e-06
-2.80654e-06
2.90593e-06
-2.85606e-06
2.75666e-06
-3.08057e-06
3.32101e-06
-2.88449e-06
2.64405e-06
-3.61704e-06
3.95854e-06
-2.8341e-06
2.4926e-06
-4.34606e-06
4.79773e-06
-2.69661e-06
2.24494e-06
-5.33131e-06
5.88159e-06
-2.2654e-06
1.71511e-06
-6.30307e-06
6.32701e-06
-2.27762e-07
2.03821e-07
-5.63387e-06
4.14414e-06
1.1101e-06
3.79639e-07
-6.52713e-06
5.26731e-06
-3.59283e-06
1.9759e-05
-2.27464e-05
1.15026e-06
2.43039e-05
-2.57695e-05
8.68564e-07
2.62277e-05
-2.57348e-05
-4.80447e-07
2.39755e-05
-1.95716e-05
-4.285e-06
3.34475e-06
1.55278e-05
-1.90992e-05
-3.04861e-05
4.07477e-05
-1.08433e-05
-4.57115e-05
4.22249e-05
3.34672e-06
-3.32778e-05
2.79402e-05
5.91853e-06
-2.64097e-05
1.4541e-05
1.14554e-05
2.69436e-05
-4.86339e-05
1.89894e-05
5.2963e-05
-5.16978e-05
-1.08854e-06
5.01756e-05
-4.87688e-05
-1.185e-06
4.76192e-05
-4.67224e-05
-5.69176e-07
4.73572e-05
-4.86018e-05
7.20943e-07
5.57137e-05
-6.22082e-05
4.08293e-06
6.63094e-05
-6.71537e-05
3.32921e-06
5.85665e-05
-4.72968e-05
-1.82833e-05
1.91769e-05
2.91021e-06
-2.95945e-05
-2.19581e-06
7.14805e-06
-9.0875e-08
4.75385e-07
-2.18915e-06
4.08426e-07
-8.71633e-10
6.07149e-06
-5.83261e-06
-5.14521e-07
-8.93036e-08
2.9319e-06
-2.54643e-07
-5.54992e-08
6.12349e-09
9.6657e-07
3.72066e-06
6.34885e-06
-9.40494e-06
-2.41186e-05
3.48474e-05
3.48562e-05
-4.55665e-05
-4.3192e-05
5.02629e-05
1.95398e-05
-2.66021e-05
-5.50716e-05
5.63497e-05
-9.40047e-07
-3.28496e-07
-5.50062e-05
5.19105e-05
-9.20245e-06
1.23033e-05
-3.01235e-05
-1.84011e-05
-5.39838e-05
9.9661e-05
8.67217e-06
-7.81848e-07
-9.95072e-06
1.83445e-06
4.12e-07
-1.09039e-06
6.48736e-07
1.0332e-08
2.54902e-06
-9.24534e-06
1.51861e-06
-5.89832e-08
1.80506e-05
-2.61345e-05
1.42815e-06
-3.63574e-07
3.16395e-05
-3.49331e-05
-1.52248e-06
-2.96038e-08
3.65425e-05
-3.76178e-05
-3.79197e-06
-6.10404e-08
3.98806e-05
-5.4617e-05
-3.16836e-06
1.40981e-08
7.98513e-05
-7.78388e-05
3.58312e-05
-5.39758e-05
4.57617e-05
-1.43951e-05
6.86023e-05
-9.99129e-05
-1.14176e-05
1.3139e-05
-2.14068e-10
9.97228e-11
-8.77362e-11
-7.06944e-11
5.38243e-11
8.64621e-11
-8.75412e-11
1.43875e-10
-1.51971e-10
-2.71002e-12
3.90044e-08
2.90338e-09
-4.18909e-08
-3.39155e-06
3.40978e-05
1.68745e-05
-3.7446e-05
-3.74835e-05
4.19261e-05
5.16351e-05
-5.60473e-05
-4.7226e-05
5.22394e-05
3.25551e-05
-3.75421e-05
-5.1431e-05
4.97093e-05
5.15049e-09
1.65115e-06
-4.44123e-05
2.91179e-05
-1.96296e-05
3.49276e-05
5.94422e-06
-7.40448e-06
-0.000121416
8.0405e-05
5.78548e-07
-7.90806e-08
-6.93194e-07
1.95725e-07
7.67036e-08
-1.15599e-07
-2.72512e-11
1.18608e-08
1.14127e-07
-1.22331e-07
1.15206e-09
3.84651e-09
1.47702e-07
-1.62744e-07
2.72822e-09
8.04706e-10
1.72947e-07
-1.94811e-07
2.67192e-08
-1.07717e-09
2.40575e-07
-3.27252e-07
4.58272e-08
-2.62268e-09
4.75892e-07
-1.38369e-06
8.89317e-07
-2.77801e-07
4.05573e-06
-3.47029e-05
4.26283e-05
-3.78392e-05
4.40252e-05
-2.33682e-05
0.000125867
-0.000147016
-5.54391e-06
3.4257e-09
-1.5604e-10
1.10023e-12
-1.49514e-11
-6.81086e-11
7.11462e-10
-1.92769e-10
4.54041e-09
3.17841e-10
-4.6672e-09
-1.18809e-07
3.48293e-06
5.46283e-07
-3.91013e-06
-3.51931e-05
4.08706e-05
5.60894e-05
-6.12309e-05
-4.299e-05
4.65764e-05
6.02075e-05
-6.3747e-05
-4.93864e-05
5.10538e-05
4.11348e-05
-4.27757e-05
-4.54137e-05
2.63388e-05
-3.54168e-06
3.42798e-06
-1.97971e-05
-8.45378e-06
-5.9381e-05
8.74065e-05
1.01131e-05
-1.41246e-06
-1.69512e-05
8.09177e-06
5.63757e-08
-5.09697e-09
-7.34977e-08
1.03269e-07
5.29229e-09
-7.26213e-09
-8.92402e-09
1.00846e-08
8.82258e-09
-8.47894e-09
1.80781e-09
-2.93983e-09
6.59555e-09
-1.5896e-09
-1.31723e-09
-5.64977e-09
-3.92461e-09
8.31484e-09
-3.48678e-09
9.9714e-10
-8.93912e-09
2.50551e-09
-1.80356e-09
2.22271e-08
1.6745e-09
3.60229e-08
-1.2613e-08
3.22885e-08
9.48258e-07
-2.58859e-05
4.50071e-05
-5.14585e-05
2.95091e-05
-2.10817e-05
0.000160236
-0.000170855
-1.05261e-08
8.31111e-09
2.05389e-09
-3.96193e-10
1.49388e-09
-4.90066e-10
-1.50305e-10
-2.26282e-08
3.27389e-07
5.64862e-08
-3.61346e-07
-5.42368e-06
3.46729e-05
1.43176e-05
-4.27426e-05
-4.03996e-05
4.29726e-05
6.38679e-05
-6.64552e-05
-4.49131e-05
4.35523e-05
6.5935e-05
-6.46952e-05
-3.99198e-05
3.67066e-05
4.18425e-05
-3.73969e-05
-1.6656e-05
8.53477e-06
-1.77653e-06
5.67051e-07
-1.11282e-05
-3.66718e-06
-0.000104365
0.000115283
1.79415e-06
-9.9895e-08
-2.59105e-06
8.23594e-07
2.23769e-08
-1.84526e-08
-1.97652e-07
1.81303e-07
2.08443e-08
-1.1039e-08
-1.10491e-08
1.28666e-07
6.63235e-09
-7.69589e-09
2.0112e-09
5.96937e-09
4.84155e-08
4.21544e-08
6.7389e-08
-5.36612e-07
-1.07422e-07
1.32147e-07
2.11431e-08
-1.25808e-07
-9.12128e-08
2.13081e-08
-2.23157e-08
8.50803e-08
-6.96958e-09
6.59981e-09
-3.38529e-08
2.91439e-08
4.5449e-08
-7.84348e-06
6.31709e-05
-5.60569e-05
1.91358e-05
-1.63034e-05
0.000179799
-0.000183773
-3.38253e-09
1.96341e-09
1.13625e-09
-2.1634e-09
9.58598e-08
6.38388e-09
-1.00792e-07
-2.11986e-06
1.99514e-05
3.49104e-06
-2.75872e-05
-3.4205e-05
3.79039e-05
5.32223e-05
-5.69319e-05
-4.0623e-05
4.22954e-05
6.88422e-05
-7.05232e-05
-3.6293e-05
3.1195e-06
4.42738e-05
-2.07801e-05
-1.80055e-06
3.97961e-07
2.93656e-06
-7.05425e-07
-2.72708e-06
2.77908e-06
-1.38951e-06
5.93962e-06
-2.42593e-06
-4.90613e-08
-0.000124434
0.000128189
1.18945e-07
5.62876e-09
-4.35174e-07
2.8986e-07
-1.04122e-08
2.63406e-09
-1.06771e-07
9.36291e-08
1.12475e-08
-2.66542e-09
-1.44566e-07
1.13117e-07
1.16452e-07
-1.81897e-07
3.48902e-08
-2.43734e-07
3.56203e-08
8.43431e-08
6.48094e-07
-7.63872e-07
-6.3146e-08
6.46857e-08
1.52363e-07
-4.3613e-09
-9.26617e-08
1.47483e-07
-1.24095e-07
1.445e-08
-3.02606e-07
1.79014e-07
-2.80636e-07
4.00984e-07
3.48261e-08
-1.49914e-07
1.11195e-05
-4.77291e-07
1.34863e-05
-1.25838e-05
0.000184245
-0.000184933
-2.16742e-10
4.62372e-11
3.85312e-11
-3.80017e-07
9.37489e-06
1.34297e-06
-1.32181e-05
-2.73978e-05
3.27499e-05
4.63656e-05
-5.17249e-05
-3.52971e-05
3.74807e-05
5.9604e-05
-6.17877e-05
-3.95044e-05
3.70452e-05
7.07723e-05
-6.83146e-05
-8.23637e-06
-3.80361e-07
7.99417e-06
-3.20019e-06
-3.36684e-07
7.38679e-07
5.36449e-07
-4.99765e-07
-3.89801e-06
2.78745e-06
-9.13773e-06
1.00029e-05
-3.20427e-06
-9.52679e-07
-0.000126535
7.34027e-05
1.48223e-08
-2.2077e-09
-2.32849e-07
2.61104e-07
-7.04377e-10
-8.07909e-09
-1.16515e-07
1.61541e-07
3.64584e-08
-9.3171e-08
-9.5807e-08
1.30243e-07
3.15508e-07
-1.58797e-07
3.98057e-07
-5.50461e-07
8.47088e-08
4.98658e-09
8.73744e-07
-9.51058e-07
-3.21372e-10
1.77114e-10
6.74984e-10
-5.24942e-10
-2.27441e-10
1.4824e-09
-1.76654e-09
5.23181e-10
-4.94493e-09
6.38345e-09
-5.86661e-08
8.46454e-09
-8.80128e-09
-5.64217e-08
1.0794e-07
-3.79049e-08
9.20396e-07
-8.29589e-06
0.000147443
-8.17115e-05
-1.96438e-05
1.09754e-06
1.7425e-05
-2.00083e-05
2.82884e-05
3.44878e-05
-4.27694e-05
-3.12405e-05
3.25803e-05
5.43673e-05
-5.57069e-05
-3.39802e-05
3.62585e-05
6.40388e-05
-6.63169e-05
-3.39882e-05
1.44864e-05
6.08185e-05
-4.50062e-05
-3.57844e-07
2.15582e-07
1.49354e-06
-4.4047e-07
-1.48507e-07
9.20571e-08
5.3269e-07
-4.62183e-08
-1.29517e-06
-1.33257e-06
-1.14143e-05
1.45764e-05
5.05424e-06
-6.6822e-07
-6.6367e-05
0.000104553
7.16027e-08
-3.99869e-08
-2.10533e-07
1.27643e-07
2.26836e-08
-1.16456e-08
-9.10164e-08
2.98396e-08
5.89609e-08
-3.52287e-07
-2.33658e-07
5.40102e-07
2.1074e-07
-2.18075e-07
6.42667e-07
-6.26373e-07
4.53531e-08
-6.04242e-09
1.85541e-07
-1.70868e-07
2.18562e-10
-1.09388e-12
6.22651e-10
-8.41133e-10
-5.36841e-11
9.10861e-11
-3.12782e-10
2.74366e-10
-2.26722e-10
-3.26564e-09
-9.78791e-09
1.64755e-08
3.40222e-09
1.30945e-09
4.58483e-08
-4.95375e-08
-8.02051e-10
-3.29735e-06
5.37287e-05
-4.68939e-05
5.35e-06
-7.49776e-11
1.34412e-06
-1.37272e-05
1.41157e-05
7.56337e-06
-3.26723e-06
-7.3149e-06
-8.05217e-08
1.2193e-05
-4.20575e-08
2.02889e-06
-3.29079e-06
3.07541e-06
-1.89233e-06
2.92117e-06
-3.29508e-08
3.79972e-06
-3.97049e-06
-3.12553e-06
5.15054e-06
3.2937e-06
-3.0661e-06
-6.92438e-06
8.83366e-06
2.03578e-06
-2.66382e-06
-1.0696e-05
1.22756e-05
6.51626e-07
-1.78796e-06
-1.34316e-05
1.4181e-05
-5.24041e-07
-2.07227e-07
-1.44573e-05
1.43046e-05
-1.88758e-06
2.04036e-06
-1.38399e-05
1.31345e-05
-2.77976e-06
3.4852e-06
-1.21453e-05
1.07761e-05
-3.40902e-06
4.77821e-06
-9.29085e-06
7.96478e-06
-3.6204e-06
4.94648e-06
-6.91202e-06
6.14961e-06
-3.44098e-06
4.20339e-06
-5.69896e-06
5.57072e-06
-3.19385e-06
3.32209e-06
-5.65645e-06
5.82439e-06
-2.94432e-06
2.77638e-06
-6.06165e-06
6.35116e-06
-2.67746e-06
2.38794e-06
-6.66789e-06
7.05623e-06
-2.42507e-06
2.03674e-06
-7.56353e-06
8.19188e-06
-2.15302e-06
1.52467e-06
-8.93739e-06
9.80883e-06
-1.80709e-06
9.3565e-07
-1.08025e-05
1.18497e-05
-1.1975e-06
1.5034e-07
-1.2891e-05
1.38218e-05
-1.6142e-07
-7.69377e-07
-1.49988e-05
1.76212e-05
-1.75904e-06
-8.63402e-07
3.39694e-12
-6.75786e-14
-4.80016e-12
8.61036e-09
-4.31198e-08
3.7387e-08
-2.95256e-09
6.58355e-08
3.40217e-18
1.16118e-08
-1.18285e-09
3.2515e-17
-5.4957e-16
5.11029e-16
6.02619e-18
6.42129e-15
-5.65776e-14
5.01649e-14
-4.7028e-18
4.59192e-13
-3.62488e-12
3.16775e-12
-2.03157e-15
2.87521e-11
-2.33375e-10
2.04989e-10
-3.64021e-13
1.95009e-09
-1.67298e-08
1.48568e-08
-7.68129e-11
1.40227e-07
-9.07436e-07
7.68277e-07
-1.04981e-09
1.45255e-06
-1.9004e-06
6.32232e-07
-2.92011e-09
1.7866e-06
-9.66506e-07
-1.4139e-06
-2.31361e-07
-7.38906e-07
3.6608e-06
-5.51437e-06
3.67008e-07
-6.55453e-06
8.90749e-06
-6.22732e-06
2.75742e-06
-9.82647e-06
9.27905e-06
-5.5422e-06
6.08961e-06
-7.86058e-06
6.70915e-06
-4.30263e-06
5.45405e-06
-5.49201e-06
4.60763e-06
-3.03814e-06
3.92253e-06
-4.31492e-06
4.34939e-06
-1.79906e-06
1.76459e-06
-4.6435e-06
5.42822e-06
-1.32501e-06
5.40296e-07
-6.53287e-06
7.59145e-06
-8.86241e-07
-1.7234e-07
-8.52246e-06
9.40649e-06
-2.38124e-07
-6.45908e-07
-1.02828e-05
1.1172e-05
8.04282e-07
-1.69354e-06
-1.21183e-05
1.32012e-05
1.91702e-06
-2.99991e-06
-1.46301e-05
1.65124e-05
2.88359e-06
-4.76586e-06
-7.20431e-13
4.69939e-14
6.51408e-13
2.3499e-10
-5.60204e-10
-5.97794e-10
4.0448e-11
5.27389e-11
-6.49129e-19
-6.08136e-11
8.07462e-12
1.01399e-18
-8.80783e-19
-1.69772e-19
1.78332e-18
1.09851e-18
-1.22677e-18
-1.09886e-19
-1.97899e-18
1.34745e-18
-8.33664e-18
9.86765e-18
-5.78147e-18
6.7005e-16
-2.95178e-14
2.88482e-14
7.31038e-20
1.19436e-12
-1.07871e-10
5.39934e-11
-1.03676e-12
5.89547e-10
-1.3558e-09
9.9252e-10
-4.75321e-10
6.99571e-10
-6.97208e-11
1.52538e-10
-5.34376e-10
1.4924e-11
-3.52295e-11
1.17144e-11
-2.78717e-12
5.42478e-10
-7.13545e-09
6.79275e-09
-2.2886e-10
7.83172e-08
-4.21683e-07
3.43627e-07
-2.38296e-10
1.14563e-06
-1.89528e-06
-8.12285e-07
-2.39308e-08
2.15554e-06
-1.94275e-06
-3.53402e-06
-1.8076e-07
8.46187e-08
2.55411e-06
-5.07841e-06
7.6488e-07
-5.06027e-06
5.68918e-06
-2.71808e-06
2.08917e-06
-4.64302e-06
3.61835e-06
-2.28392e-07
1.25306e-06
-2.93622e-06
2.50349e-06
1.31978e-06
-8.87049e-07
-2.80446e-06
4.08318e-06
1.95624e-06
-3.23495e-06
-5.79151e-06
7.46393e-06
2.91518e-06
-4.58759e-06
-9.03355e-06
1.04671e-05
4.14312e-06
-5.5767e-06
-1.1651e-05
1.26004e-05
6.13645e-06
-7.08581e-06
-9.91922e-17
7.18482e-17
2.88503e-16
-1.07574e-12
2.69411e-11
-1.10697e-10
6.73597e-13
-2.70778e-11
4.791e-15
-4.01403e-14
3.6083e-12
9.83612e-15
6.68209e-16
-3.09719e-15
8.60861e-16
-1.03181e-16
1.84266e-18
1.67392e-18
6.35412e-19
-1.11292e-18
-1.83234e-19
-2.3376e-19
1.20658e-18
5.05289e-19
-3.89771e-20
-1.35055e-18
1.40279e-18
1.84779e-18
-7.72848e-16
7.74387e-16
-3.3694e-18
1.8606e-13
-3.00449e-11
2.98588e-11
-1.19878e-17
3.73359e-10
-6.3457e-10
4.2842e-10
-3.64933e-16
3.35082e-11
-3.38665e-11
4.00444e-13
-2.41466e-14
7.94497e-11
-4.80148e-11
9.54581e-11
-1.83992e-13
9.34355e-11
-2.23324e-10
7.84911e-11
-8.06918e-12
2.07745e-10
-1.60991e-10
1.99004e-10
-2.24899e-12
2.10115e-10
-4.9166e-10
2.92009e-10
-2.84104e-11
5.46382e-09
-6.21291e-08
5.67394e-08
-4.20754e-11
4.50347e-07
-1.27595e-06
7.89813e-07
-1.10506e-10
1.71907e-06
-2.79521e-06
1.03481e-06
-1.21166e-08
3.18184e-06
-1.27442e-06
6.94097e-07
-9.8276e-07
-1.71796e-06
5.70115e-06
3.63489e-06
-3.10136e-06
-7.60904e-06
7.78323e-06
4.9566e-06
-3.55613e-06
-8.09879e-06
8.7536e-06
6.28753e-06
-6.53287e-06
-8.87806e-06
8.79769e-06
7.62675e-06
-7.54599e-06
-9.16813e-19
5.50377e-19
-1.82588e-20
-1.52113e-17
5.1947e-15
-7.00733e-15
7.18406e-17
-1.30363e-14
8.1379e-16
1.15501e-14
-4.31827e-17
-3.4214e-16
6.39592e-19
-6.78318e-17
6.31043e-18
-4.23271e-19
-5.86697e-19
-1.56546e-19
-4.394e-19
7.41934e-19
-4.76358e-19
-5.34434e-19
-4.67737e-20
-5.51576e-20
-4.93971e-19
-5.58078e-19
9.69518e-20
4.91199e-18
-1.63586e-17
4.91068e-18
-7.44329e-18
2.64181e-17
-2.49629e-17
1.47509e-17
-1.30167e-17
2.45402e-18
1.29969e-16
8.24378e-18
-5.80415e-17
2.77047e-13
-6.17914e-13
-7.94799e-15
-1.29965e-14
-2.49729e-13
-2.55646e-13
7.15484e-14
-9.63604e-14
1.26747e-11
-1.43881e-11
5.49476e-12
-2.88202e-12
9.96825e-13
-1.39042e-12
3.12014e-13
-1.04206e-12
3.8917e-12
-7.99992e-11
-8.39131e-11
-1.82205e-14
1.66705e-10
-1.63835e-10
5.4336e-11
-7.71871e-13
1.78805e-10
-1.46021e-12
2.96369e-11
2.11748e-11
1.94617e-12
-2.4137e-12
7.18687e-13
-2.59122e-13
3.26013e-12
-6.41322e-12
4.20778e-12
-1.06341e-12
3.67813e-11
-3.489e-10
3.14668e-10
-2.64039e-12
3.39081e-09
-3.05354e-08
2.71635e-08
-1.94845e-11
2.56621e-07
-1.95578e-06
1.70346e-06
-4.40291e-09
2.14777e-06
-3.28055e-06
4.97633e-06
-3.93431e-07
2.82506e-19
-5.20046e-19
-9.56467e-23
6.98442e-20
1.83e-19
-8.24882e-20
3.3942e-20
-6.36081e-19
1.2565e-19
-1.73246e-18
5.09007e-20
-8.19167e-20
-4.06011e-20
-6.39813e-19
-1.34215e-19
1.14474e-19
-1.56295e-19
5.28931e-19
-4.67687e-19
1.16579e-19
5.87684e-20
3.94813e-19
-5.14183e-19
1.91151e-20
-7.53645e-19
2.26414e-21
4.45147e-20
1.3017e-17
-3.0085e-17
4.09061e-18
1.11414e-18
3.85362e-17
-6.95564e-17
1.05399e-17
-1.13029e-18
4.72593e-16
-6.73353e-13
-1.79735e-16
7.90074e-15
2.03986e-12
-1.673e-12
-6.26754e-14
1.27779e-13
3.70876e-13
-3.35781e-13
4.2299e-15
5.24223e-16
4.35294e-12
-1.95861e-11
1.07144e-12
2.64457e-15
2.0787e-11
-6.77674e-13
8.23017e-13
-3.52643e-14
6.82055e-13
-2.16884e-12
1.95782e-15
-4.36294e-14
2.06805e-12
-2.38871e-12
6.11233e-13
-2.29608e-13
4.56032e-14
-1.47979e-13
9.90633e-14
-1.54376e-16
-4.85796e-13
-2.58807e-12
1.70491e-13
-2.95569e-13
6.71288e-12
-1.19197e-11
1.51729e-12
-6.09579e-12
8.4129e-12
-4.64126e-12
2.40262e-12
-8.23157e-12
1.58565e-13
-4.34021e-16
9.40836e-14
-2.53702e-13
2.23917e-13
-9.68516e-13
5.79805e-12
-5.04571e-12
2.12679e-12
-6.11048e-12
8.24915e-12
-4.68952e-12
5.56051e-19
-5.13242e-19
5.45873e-23
7.06623e-23
-1.11663e-22
-4.01892e-22
2.34978e-22
-4.33623e-22
2.2201e-22
-3.8307e-20
-1.12599e-20
2.97395e-22
-1.95518e-22
1.40785e-19
-9.47313e-20
-9.2699e-21
4.50433e-20
3.68379e-19
-2.66052e-19
-1.02536e-19
1.01106e-19
4.66433e-19
-3.47809e-19
1.59483e-19
-8.80783e-19
-1.53828e-19
1.26119e-19
6.97107e-18
-1.97945e-17
-5.06087e-18
3.3359e-18
2.78204e-17
-3.53032e-17
-5.09447e-18
6.60434e-18
4.34014e-17
-1.55434e-16
8.58049e-17
1.24864e-17
9.4523e-16
-1.28805e-14
8.81997e-15
-1.53625e-15
9.24358e-14
-7.88419e-14
-4.2235e-15
1.11853e-14
2.09281e-14
-7.13543e-16
7.68675e-17
3.65237e-16
8.67215e-16
-4.39009e-14
2.65905e-17
5.89003e-16
1.98651e-13
-1.93606e-13
1.0945e-14
-5.83818e-16
2.3016e-13
-8.96041e-15
1.15198e-13
-1.73083e-14
4.89409e-15
-1.32638e-15
4.62837e-16
-1.85241e-15
4.75268e-16
-1.76021e-14
1.71669e-14
-4.1551e-17
1.42746e-12
-5.75055e-12
2.07178e-12
-9.48568e-17
8.40345e-12
-9.35738e-12
8.01252e-12
-3.4361e-15
3.21431e-12
-2.08328e-14
1.04159e-12
-1.66801e-13
7.63731e-15
1.58219e-15
7.13686e-13
-7.90142e-13
-4.3438e-14
3.67205e-14
4.06803e-13
-4.40214e-13
4.32953e-19
-3.41143e-19
1.36161e-23
-1.00476e-22
3.50584e-22
3.93121e-22
-1.86897e-22
-1.02266e-21
2.58232e-21
9.69142e-21
-5.39982e-21
-6.17375e-21
1.37042e-20
5.92641e-20
-3.52262e-20
-2.84357e-20
5.00899e-20
1.75665e-19
-1.07121e-19
-6.47338e-20
4.42228e-20
2.27705e-19
-1.35524e-19
1.26988e-20
-1.09615e-19
-2.36532e-20
3.68498e-21
8.58893e-19
-2.01691e-18
-1.47817e-18
4.75187e-19
6.13823e-18
-2.72362e-17
-5.75621e-18
6.96884e-18
6.50698e-17
-3.77257e-16
-2.61263e-17
6.19571e-17
8.96759e-15
-3.15444e-14
-7.57916e-15
2.33098e-15
3.60581e-14
-5.27913e-15
-1.56888e-14
1.37616e-15
8.28158e-16
-8.33872e-17
-5.07345e-16
2.6881e-17
8.95058e-17
-5.03764e-16
-1.33374e-15
3.92552e-18
3.02723e-14
-1.36767e-13
-1.85739e-15
1.29384e-15
1.64833e-13
-1.92195e-13
9.85826e-15
-2.50544e-15
3.96561e-14
-1.92334e-16
1.58933e-15
-1.8041e-16
1.73224e-16
-2.21479e-16
4.40961e-17
-4.64715e-17
1.87956e-16
-1.15018e-16
9.70593e-17
-1.07527e-16
1.38424e-16
-5.58759e-15
1.78936e-15
-1.08114e-15
6.48073e-14
1.80451e-13
1.69264e-13
3.15713e-13
1.17231e-11
-1.05155e-10
9.02266e-13
8.60355e-11
2.51997e-11
2.77167e-11
1.51447e-12
-2.37342e-10
2.55194e-19
-1.83519e-19
2.42186e-24
-2.26106e-23
1.03378e-22
7.76542e-23
-3.03421e-23
-3.90697e-22
1.17979e-21
2.73754e-21
-1.31253e-21
-2.99493e-21
6.52367e-21
1.98174e-20
-1.0529e-20
-1.22216e-20
1.88449e-20
6.0806e-20
-3.23255e-20
-2.13037e-20
1.4708e-20
7.51061e-20
-3.9258e-20
-1.9963e-21
-1.31676e-20
-2.10392e-21
-2.53606e-21
2.54866e-20
-1.46816e-19
-1.27501e-19
3.27778e-20
3.16827e-18
-3.28878e-17
-9.36935e-18
4.63614e-18
5.94277e-17
-4.22817e-17
-4.61686e-17
1.61044e-17
9.76607e-18
-4.37131e-18
-2.25621e-18
9.61566e-19
3.97513e-18
-5.65104e-18
-2.03977e-19
1.08933e-18
1.40464e-17
-2.64586e-17
-3.84519e-18
4.79903e-18
3.00437e-17
-2.52863e-17
-4.42925e-18
4.69048e-18
1.33047e-17
-1.53444e-17
6.37447e-18
9.78192e-19
5.15313e-18
-5.42582e-18
3.15177e-20
1.14956e-19
9.29424e-18
-2.27347e-17
1.52525e-18
-1.18533e-18
7.12396e-17
-1.62764e-16
3.51706e-17
-8.50514e-18
2.63782e-16
-2.92658e-16
1.34975e-16
-1.87445e-16
-1.3047e-15
5.83991e-14
1.76224e-14
-8.80896e-14
-1.72259e-12
8.36839e-11
1.24681e-11
-1.02697e-10
5.60329e-09
-1.04488e-08
6.48971e-09
-1.4802e-08
8.39878e-09
-4.1931e-09
1.82456e-08
-2.19838e-08
1.27937e-19
-8.6823e-20
5.23712e-25
-3.22659e-24
1.92397e-23
1.11831e-23
-3.88201e-24
-9.17467e-23
3.16346e-22
5.98437e-22
-2.60251e-22
-8.34143e-22
1.79271e-21
5.28168e-21
-2.50714e-21
-3.20364e-21
4.62735e-21
1.61655e-20
-7.62833e-21
-5.01406e-21
3.7678e-21
1.9427e-20
-9.10069e-21
-1.60821e-21
-1.19333e-22
3.39107e-21
-2.2077e-21
5.37204e-22
-1.36179e-20
-7.89113e-21
1.45162e-21
1.88916e-19
-5.70691e-19
-6.13993e-19
4.65373e-20
6.27117e-19
-5.54351e-19
-1.11124e-18
7.94263e-20
6.04589e-19
-7.40442e-19
-5.12978e-19
1.50863e-19
1.05196e-18
-1.83891e-18
-1.08518e-18
3.01732e-19
3.51363e-18
-5.01185e-18
-2.17845e-18
7.19271e-19
5.28451e-18
-4.93236e-18
-2.18558e-18
6.72503e-19
3.76406e-18
-3.01117e-18
-1.12993e-18
3.03707e-19
3.1469e-18
-3.65377e-18
-3.52275e-19
1.75893e-19
4.27718e-18
-5.22175e-18
3.4581e-19
-3.19871e-20
1.52176e-17
-3.16837e-16
8.99141e-18
-2.09548e-17
1.96039e-15
-2.48695e-15
4.79389e-16
-1.94199e-15
2.71112e-15
-3.8263e-14
3.6896e-14
-5.11692e-15
9.00491e-13
-2.67419e-11
2.60382e-11
-2.12164e-13
1.76636e-09
-3.10494e-09
1.33642e-08
-1.98381e-10
7.30903e-09
-1.01106e-08
2.37819e-08
-2.05396e-08
5.73673e-20
-3.6747e-20
6.62163e-25
-2.74724e-25
2.31144e-24
1.27372e-24
-3.99448e-25
-1.46105e-23
5.82201e-23
1.08366e-22
-4.34476e-23
-1.60877e-22
3.45141e-22
1.12991e-21
-4.84706e-22
-5.98985e-22
8.32287e-22
3.40348e-21
-1.43712e-21
-8.90931e-22
7.0796e-22
4.03344e-21
-1.68922e-21
-3.84785e-22
8.74606e-23
1.19291e-21
-5.77416e-22
8.79457e-23
-3.06276e-22
-1.82694e-22
1.623e-23
1.36177e-21
-4.68679e-21
-4.07462e-21
6.15789e-22
1.41633e-20
-2.80309e-20
-1.98209e-20
5.30702e-21
3.68747e-20
-4.25006e-20
-4.17536e-20
8.97386e-21
5.41508e-20
-1.15181e-19
-6.14353e-20
1.50387e-20
2.64325e-19
-3.64604e-19
-2.01082e-19
5.56102e-20
3.8117e-19
-3.0528e-19
-1.91276e-19
5.14944e-20
2.13426e-19
-1.97509e-19
-7.29587e-20
2.28013e-20
2.2539e-19
-3.28546e-19
-5.15966e-20
2.55763e-20
5.6631e-19
-2.76705e-18
-4.78123e-20
1.1572e-19
8.25001e-17
-1.62624e-15
3.81722e-17
-2.43288e-17
7.06288e-15
-9.75258e-15
2.02208e-15
-1.54724e-15
8.77641e-15
-8.65748e-15
3.63708e-15
-3.08049e-15
1.05019e-14
-2.50552e-15
2.68581e-14
-4.04648e-14
-2.30328e-13
2.0649e-12
2.34291e-11
-2.65572e-11
9.73397e-11
-1.18898e-08
1.28306e-08
-1.23349e-08
2.26143e-20
-1.32167e-20
2.05289e-25
-1.48434e-26
1.84904e-25
1.24203e-25
-4.03836e-26
-1.6855e-24
7.9483e-24
1.68856e-23
-6.39191e-24
-2.31394e-23
4.96643e-23
1.98159e-22
-7.71529e-23
-8.41488e-23
1.13694e-22
5.743e-22
-2.17024e-22
-1.21061e-22
9.98038e-23
6.67552e-22
-2.48593e-22
-6.12153e-23
2.41128e-23
2.52933e-22
-1.01629e-22
-2.43038e-25
-1.32016e-23
-8.24098e-24
-3.31078e-25
3.11112e-23
-1.4202e-22
-1.35399e-22
2.26906e-23
4.25496e-22
-7.74227e-22
-9.66654e-22
1.34854e-22
1.01755e-21
-1.28088e-21
-1.54575e-21
2.44725e-22
2.13748e-21
-6.12295e-21
-3.694e-21
7.57858e-22
1.36091e-20
-1.74305e-20
-1.37148e-20
2.80232e-21
1.76993e-20
-1.36676e-20
-1.21575e-20
2.48598e-21
1.21468e-20
-1.33414e-20
-6.79056e-21
1.71775e-21
2.06262e-20