/*--------------------------------*- C++ -*----------------------------------*\
| =========                 |                                                 |
| \\      /  F ield         | OpenFOAM: The Open Source CFD Toolbox           |
|  \\    /   O peration     | Version:  v1912                                 |
|   \\  /    A nd           | Website:  www.openfoam.com                      |
|    \\/     M anipulation  |                                                 |
\*---------------------------------------------------------------------------*/
FoamFile
{
    version     2.0;
    format      ascii;
    class       volScalarField;
    location    "0.6";
    object      alpha.water;
}
// * * * * * * * * * * * * * * * * * * * * * * * * * * * * * * * * * * * * * //

dimensions      [0 0 0 0 0 0 0];


internalField   nonuniform List<scalar> 
9072
(
1
1
1
1
1
1
1
1
1
1
1
1
1
1
1
1
0.999999
0.915763
0.924619
0.999825
0.97641
0.998434
0.998704
1
1
1
1
1
1
1
1
1
1
1
1
1
1
1
1
1
0.999425
0.951126
0.999905
0.999514
0.982161
0.992017
1
1
1
1
1
1
1
1
1
1
1
1
1
1
1
1
1
1
1
1
0.979917
0.841207
0.947505
1
1
1
1
1
1
1
1
1
1
1
1
1
1
1
1
1
1
1
1
0.988203
0.841207
0.987698
1
1
1
1
1
1
1
1
1
1
1
1
1
1
1
1
1
1
1
1
1
0.997263
1
1
1
1
1
1
1
1
1
1
1
1
1
1
1
1
1
1
1
1
1
1
1
1
1
1
1
0.999998
1
1
1
1
1
1
1
1
1
1
1
1
1
1
1
1
1
1
1
1
1
0.999957
0.95128
0.98975
1
1
1
1
1
1
1
1
1
1
1
1
1
1
1
1
1
1
0.471121
0.874131
0.931908
0.934282
0.938616
0.965622
0.973914
0.959336
0.993369
0.993371
0.727936
0.674429
0.674884
0.673739
0.668389
0.773749
0.772927
0.632527
0.581818
0.147181
0.0213553
0.278222
0.0632186
0.20769
0.997299
0.997805
0.997832
0.997912
0.979483
0.00261384
0.000528214
0.0356163
0.187118
0.280633
0.296898
0.377732
0.868393
0.966775
0.209565
3.59711e-06
3.61784e-06
5.11065e-06
0.582052
0.997342
0.997487
0.932783
0.997884
0.82497
0.000332659
0.00120844
0.00153815
0.00167544
0.00140985
0.001948
0.00521227
0.203759
0.968533
0.0323941
1.11663e-05
4.94014e-06
0.000305382
0.987723
0.996767
0.997487
0.571309
0.992695
0.00367018
0.000219111
0.000133407
0.000133336
0.000142641
0.000249192
0.000908579
0.000926247
0.327054
0.972787
0.00011179
1.86313e-05
0.000122135
0.697624
0.998972
0.997311
0.990836
0.188954
0.871912
0.00124763
0.00171164
0.00137426
0.000209884
0.00600017
0.0057207
0.000411907
0.000449338
0.343117
0.989501
5.80002e-06
4.21196e-05
0.311887
0.999361
0.999386
0.381014
0.0082402
0.0678176
0.846781
0.000691676
0.00063616
0.00179131
0.00669328
0.00773421
0.00184667
0.00285005
0.00819555
0.00752452
0.988796
3.2613e-06
0.130709
0.999422
0.999795
0.99966
0.123271
0.00548202
0.121303
0.712794
0.000917342
0.00115792
0.000541464
0.00772508
0.00765169
7.2494e-06
7.24852e-06
0.000231624
0.000285341
0.374035
0.959502
0.999941
0.999973
0.99989
0.781227
0.066577
0.00458544
0.140915
0.437108
0.00184649
0.000330958
0.00188083
0.00759244
4.19015e-05
7.23098e-06
7.23098e-06
4.52588e-05
0.000341532
0.232665
0.166915
0.758394
0.382243
0.246379
0.746619
0.883008
0.945866
0.986428
0.999763
1
1
1
1
1
1
1
1
1
1
1
1
1
1
1.08043e-07
6.63324e-06
0.00257044
0
1.27038e-13
2.00467e-12
3.62939e-10
6.47823e-08
1.30505e-06
0.0828355
0.303972
0.625898
0.940185
1
1
1
1
1
1
1
1
1
1
3.902e-10
4.41704e-05
3.33875e-16
5.89881e-14
1.2014e-13
1.56927e-13
-1.09165e-14
2.9167e-06
4.66516e-05
4.89561e-06
3.06741e-07
7.57361e-07
5.25196e-06
0.0936009
0.35974
0.764926
1
1
1
1
1
1
1
1.53945e-11
2.35192e-06
3.9603e-07
6.92226e-11
6.76119e-13
-2.74201e-14
-1.44883e-13
-6.41559e-17
5.02299e-13
5.86134e-05
4.10085e-09
5.25885e-06
1.09353e-05
7.84501e-06
5.31062e-06
4.8862e-07
0.0149041
0.119224
0.465354
0.769768
0.954767
0.997406
0.99999
1.93104e-15
1.48604e-11
6.90981e-12
2.57773e-12
-1.04757e-13
-2.85507e-13
-1.44168e-13
1.95737e-12
3.71247e-12
7.80601e-13
5.72921e-08
8.04271e-09
1.16787e-06
1.01599e-08
3.09849e-06
1.5124e-05
6.10416e-06
6.99722e-08
7.01614e-08
8.04733e-08
9.43488e-08
3.45979e-06
0.15961
-2.78108e-14
5.09142e-15
1.77312e-14
-1.54621e-14
-8.43182e-14
-1.76969e-13
7.34045e-15
3.98443e-12
5.06503e-12
1.53033e-08
2.06364e-07
4.90412e-09
1.1306e-06
5.93052e-07
4.27058e-08
1.4801e-07
1.22059e-10
9.25981e-08
1.10884e-06
8.83901e-07
7.93186e-08
7.94926e-08
7.73129e-08
-2.34363e-14
3.15801e-19
-1.15425e-15
-1.09401e-14
-4.05023e-14
-7.25454e-14
4.61813e-14
1.97932e-12
3.86416e-12
4.36571e-12
5.38076e-11
7.25976e-09
3.03059e-10
5.47189e-10
1.43777e-08
1.31521e-08
2.22784e-10
4.51153e-12
2.92289e-07
7.53878e-07
9.67365e-08
1.00916e-09
8.82632e-10
-1.31313e-14
-3.886e-17
-5.82105e-16
-3.97156e-15
-1.43678e-14
-2.16513e-14
2.4043e-15
2.3681e-13
1.68687e-12
1.49445e-11
1.48595e-09
2.2601e-09
2.98264e-11
1.22479e-11
4.67773e-09
9.48611e-09
4.24654e-10
9.46583e-12
9.19887e-12
3.2282e-11
1.46537e-08
5.32729e-08
4.19824e-07
-5.98004e-15
-6.99161e-18
-1.4601e-16
-1.14026e-15
-3.89476e-15
-5.21861e-15
-3.7032e-16
1.34166e-14
1.18056e-12
5.72763e-12
4.59152e-13
2.31321e-13
1.18622e-12
1.76e-12
4.57065e-13
2.58727e-13
4.15858e-13
5.19868e-12
1.55833e-11
1.0602e-10
7.93596e-08
0.00049063
0.000518049
-2.45118e-15
-9.36529e-19
-2.93632e-17
-2.57862e-16
-8.32915e-16
-1.04566e-15
-2.66703e-16
5.87527e-16
3.27605e-14
5.49066e-14
5.04474e-14
9.33124e-14
2.47043e-13
2.89322e-13
1.70308e-13
1.45812e-13
2.02927e-13
2.83688e-12
9.76635e-11
2.45538e-10
4.67477e-10
0.000252905
0.000517651
-9.38921e-16
-9.34482e-20
-4.80941e-18
-4.67382e-17
-1.42528e-16
-1.7107e-16
-5.98035e-17
9.52683e-18
2.65458e-16
1.70443e-15
2.98535e-15
4.78572e-15
1.75181e-14
1.87106e-14
9.36843e-15
1.14273e-14
3.71549e-14
1.48617e-11
2.58367e-10
2.57493e-10
2.86704e-10
1.2283e-08
0.000213459
-3.2342e-16
-8.23314e-21
-6.60561e-19
-6.87362e-18
-1.95437e-17
-2.24517e-17
-9.2208e-18
-3.02132e-20
7.49282e-18
4.82195e-17
8.37094e-17
2.18754e-16
8.38274e-16
8.00782e-16
5.31877e-16
1.19998e-15
1.17974e-14
4.65677e-12
8.56817e-11
1.46454e-10
6.86865e-10
1.12018e-07
0.000242068
-9.09244e-17
-7.32637e-22
-7.767e-20
-8.16792e-19
-2.13254e-18
-2.33428e-18
-1.0502e-18
-1.07761e-19
1.35636e-19
8.52925e-19
1.60976e-18
5.80745e-18
2.20828e-17
2.13289e-17
1.95273e-17
9.12884e-17
3.46714e-16
5.93414e-14
5.70735e-12
1.94538e-11
1.35633e-10
1.2342e-08
7.20485e-07
-2.01887e-17
-5.42365e-23
-7.6196e-21
-7.7029e-20
-1.8298e-19
-1.90498e-19
-9.04687e-20
-1.45203e-20
1.23343e-21
1.17501e-20
2.24276e-20
8.62254e-20
3.17846e-19
3.40546e-19
4.5244e-19
3.41316e-18
1.04447e-17
3.51609e-16
6.47028e-14
6.88747e-13
6.82427e-12
4.81906e-11
1.3937e-09
-3.67068e-18
-3.43568e-24
-5.92131e-22
-5.62881e-21
-1.21823e-20
-1.2103e-20
-5.93532e-21
-1.194e-21
2.2643e-24
1.15449e-22
2.40276e-22
7.11174e-22
2.30767e-21
2.801e-21
6.17222e-21
6.46339e-20
2.45648e-19
2.8899e-18
1.72976e-16
8.27031e-15
5.3037e-13
2.12114e-11
9.52586e-11
-5.65083e-19
-1.69805e-25
-3.4861e-23
-3.11971e-22
-6.21657e-22
-5.9505e-22
-2.98058e-22
-6.88486e-23
-1.75112e-24
8.15938e-25
2.00947e-24
4.12152e-24
6.73956e-24
3.84316e-24
1.98289e-23
5.08924e-22
3.22181e-21
6.70155e-20
1.20199e-17
1.78384e-15
1.76827e-13
6.46455e-12
2.02399e-11
-7.59842e-20
-6.12405e-27
-1.50932e-24
-1.29207e-23
-2.40827e-23
-2.25322e-23
-1.15099e-23
-2.93217e-24
-1.74041e-25
2.92499e-27
4.87576e-27
0
-3.18191e-25
-2.95726e-24
-8.19405e-24
-3.35104e-24
7.21776e-24
5.96541e-21
1.35695e-18
1.20949e-16
7.51864e-15
4.38162e-14
6.44572e-13
-9.2863e-21
-1.53101e-28
-4.72608e-26
-3.97163e-25
-7.04735e-25
-6.54889e-25
-3.42785e-25
-9.45507e-26
-8.24349e-27
-5.44376e-29
-2.07972e-27
-3.28624e-26
-3.11626e-25
-1.8634e-24
-6.49731e-24
-1.74289e-23
-2.939e-22
-4.35433e-20
-1.09335e-17
-2.66551e-17
-1.88753e-14
6.38436e-12
5.81765e-10
-1.08062e-21
-2.61028e-30
-1.06619e-27
-9.08392e-27
-1.56072e-26
-1.46237e-26
-7.90427e-27
-2.34467e-27
-2.63359e-28
-7.64096e-29
-1.16449e-27
-1.1145e-26
-7.90614e-26
-4.30556e-25
-1.66776e-24
-3.97304e-24
1.59804e-23
2.75517e-20
2.06776e-17
1.82838e-14
2.90663e-11
8.13905e-09
1.08822e-06
-1.2477e-22
-3.19699e-32
-1.74936e-29
-1.56502e-28
-2.64118e-28
-2.52748e-28
-1.42243e-28
-4.53921e-29
-7.11743e-30
-1.94742e-29
-2.4415e-28
-1.99318e-27
-1.21261e-26
-6.11524e-26
-2.50909e-25
-6.05937e-25
1.73894e-23
3.96718e-20
7.83073e-17
1.30188e-13
3.02698e-11
7.94079e-09
2.40008e-06
-1.45381e-23
-4.0439e-34
-2.13322e-31
-2.07204e-30
-3.47032e-30
-3.42571e-30
-2.02332e-30
-7.08191e-31
-2.9407e-31
-2.74914e-30
-3.0881e-29
-2.34213e-28
-1.31574e-27
-6.22876e-27
-2.62263e-26
-8.69216e-26
5.41263e-25
1.61124e-21
2.16902e-18
2.26338e-15
4.059e-12
2.59211e-10
1.96582e-08
-1.68441e-24
-2.23067e-35
-1.99226e-33
-2.15838e-32
-3.60879e-32
-3.70219e-32
-2.32504e-32
-1.03701e-32
-2.14125e-32
-2.53299e-31
-2.62884e-30
-1.92571e-29
-1.05327e-28
-4.83318e-28
-2.05183e-27
-8.96661e-27
8.24046e-28
9.77644e-24
1.19509e-20
1.21916e-17
1.44899e-14
1.03306e-12
4.18062e-10
-1.87953e-25
-5.17446e-36
-1.47166e-35
-1.80795e-34
-3.02624e-34
-3.2531e-34
-2.30336e-34
-2.28309e-34
-1.43049e-33
-1.6108e-32
-1.57392e-31
-1.13677e-30
-6.25638e-30
-2.88354e-29
-1.23721e-28
-6.21834e-28
-4.63344e-27
1.25278e-26
5.56557e-23
9.13989e-20
7.8965e-17
1.02472e-14
4.69473e-12
-1.95709e-26
-1.79338e-36
-8.86316e-38
-1.24026e-36
-2.08382e-36
-2.40646e-36
-2.46886e-36
-7.98994e-36
-6.89513e-35
-7.23579e-34
-6.76555e-33
-4.89142e-32
-2.76533e-31
-1.3197e-30
-5.85123e-30
-3.21216e-29
-5.50489e-28
-6.55428e-27
1.00496e-25
2.9654e-22
3.4731e-19
5.33494e-17
2.09314e-14
-1.85943e-27
-1.01459e-36
-4.4696e-40
-7.0673e-39
-1.20251e-38
-1.64454e-38
-3.83398e-38
-2.5772e-37
-2.34634e-36
-2.34663e-35
-2.1397e-34
-1.56144e-33
-9.1513e-33
-4.58126e-32
-2.13144e-31
-1.29281e-30
-3.70327e-29
-1.53282e-27
-1.79464e-27
2.35909e-25
4.55284e-22
1.59789e-19
5.39789e-17
-1.5894e-28
-9.11985e-36
-1.98371e-42
-3.38579e-41
-6.02562e-41
-1.2589e-40
-7.08356e-40
-6.19573e-39
-5.72629e-38
-5.56449e-37
-4.99919e-36
-3.70269e-35
-2.25513e-34
-1.18992e-33
-5.86118e-33
-4.21145e-32
-2.11933e-30
-1.3805e-28
-3.66747e-27
-7.15918e-29
2.58623e-25
6.18394e-23
-6.0322e-20
-1.21113e-29
-1.34153e-35
-1.01803e-44
-1.38282e-43
-2.8239e-43
-1.18911e-42
-1.11761e-41
-1.07824e-40
-1.0108e-39
-9.68941e-39
-8.65635e-38
-6.52794e-37
-4.13096e-36
-2.29448e-35
-1.20529e-34
-1.35462e-33
-1.38269e-31
-1.10559e-29
-3.88759e-28
-4.63994e-27
-7.12362e-29
1.14964e-25
4.37739e-24
-8.19087e-31
-1.90297e-36
-2.17791e-46
-4.91866e-46
-1.37757e-45
-1.15245e-44
-1.34759e-43
-1.37276e-42
-1.30959e-41
-1.25069e-40
-1.11798e-39
-8.58951e-39
-5.62995e-38
-3.2752e-37
-1.91287e-36
-6.66942e-35
-1.12238e-32
-9.39052e-31
-3.2253e-29
-5.00581e-28
-2.37061e-27
-2.42204e-29
4.9707e-27
-4.89323e-32
-3.02417e-37
-5.19504e-44
-1.80722e-48
-7.26336e-48
-9.52724e-47
-1.22864e-45
-1.30329e-44
-1.26705e-43
-1.21203e-42
-1.08682e-41
-8.48884e-41
-5.72894e-40
-3.46929e-39
-2.97148e-38
-4.69076e-36
-9.31302e-34
-8.55265e-32
-2.74403e-30
-3.58708e-29
-2.39909e-28
-4.68915e-28
-2.07848e-45
-2.5594e-33
-7.4663e-38
-1.79231e-43
-2.20284e-48
-3.79657e-50
-6.30014e-49
-8.59137e-48
-9.42145e-47
-9.32393e-46
-8.94578e-45
-8.0398e-44
-6.35248e-43
-4.37709e-42
-2.77807e-41
-8.05024e-40
-3.12241e-37
-7.33541e-35
-9.51837e-33
-3.01057e-31
-2.92673e-30
-1.48024e-29
-3.88042e-29
-2.66606e-29
-1.15467e-34
-1.30909e-38
-1.32903e-43
-3.08221e-48
-2.95142e-52
-3.3144e-51
-4.69867e-50
-5.29374e-49
-5.31435e-48
-5.10385e-47
-4.57909e-46
-3.63251e-45
-2.52888e-44
-1.88312e-43
-3.29762e-41
-1.7518e-38
-6.2194e-36
-1.30615e-33
-3.99265e-32
-3.08674e-31
-1.14262e-30
-2.5327e-30
-2.56764e-30
-4.3988e-36
-1.40022e-39
-3.95131e-44
-1.51271e-48
-7.8354e-53
-1.4059e-53
-2.05074e-52
-2.35763e-51
-2.38737e-50
-2.28395e-49
-2.03205e-48
-1.60255e-47
-1.11586e-46
-1.68895e-45
-1.21321e-42
-8.95352e-40
-5.88433e-37
-1.68767e-34
-4.63202e-33
-3.02165e-32
-1.07691e-31
-3.15655e-31
-3.78979e-31
-1.37931e-37
-9.3478e-41
-5.42409e-45
-3.10461e-49
-2.02593e-53
-5.04649e-56
-7.28303e-55
-8.47681e-54
-8.59406e-53
-8.13144e-52
-7.11093e-51
-5.50965e-50
-3.84783e-49
-2.65074e-47
-3.59589e-44
-4.63623e-41
-5.09929e-38
-1.69075e-35
-3.94062e-34
-2.31973e-33
-1.53098e-32
-8.65454e-32
-1.03991e-31
-3.46542e-39
-4.0272e-42
-3.81542e-46
-2.96052e-50
-2.33314e-54
-3.44677e-58
-2.14399e-57
-2.50379e-56
-2.51903e-55
-2.33633e-54
-1.98719e-53
-1.49279e-52
-1.12772e-51
-4.33915e-49
-9.22521e-46
-2.2545e-42
-3.37316e-39
-1.21652e-36
-2.31418e-35
-1.82395e-34
-3.85556e-33
-2.66605e-32
-4.4895e-30
-6.80345e-41
-1.14476e-43
-1.47641e-47
-1.41865e-51
-1.28157e-55
-1.24333e-59
-5.32655e-60
-6.17925e-59
-6.10924e-58
-5.49862e-57
-4.49617e-56
-3.22949e-55
-3.58965e-54
-5.66951e-51
-2.13576e-47
-8.43708e-44
-1.54141e-40
-5.97094e-38
-9.40603e-37
-2.49508e-35
-9.75786e-34
-6.80181e-33
-1.90202e-29
-1.0219e-42
-2.16669e-45
-3.30209e-49
-3.64591e-53
-3.60756e-57
-3.58779e-61
-1.13925e-62
-1.29582e-61
-1.2461e-60
-1.07682e-59
-8.36115e-59
-5.66751e-58
-1.5381e-56
-5.85626e-53
-3.93652e-49
-2.07571e-45
-4.4943e-42
-1.87884e-39
-3.3844e-38
-4.18123e-36
-1.90011e-34
-1.79069e-33
-3.60228e-29
-1.15668e-44
-2.81625e-47
-4.57785e-51
-5.45664e-55
-5.68248e-59
-5.77438e-63
-2.17311e-65
-2.34575e-64
-2.17155e-63
-1.78221e-62
-1.29773e-61
-8.22653e-61
-7.1411e-59
-4.72913e-55
-4.82904e-51
-3.01414e-47
-7.66781e-44
-3.58056e-41
-1.79304e-39
-5.45213e-37
-2.6817e-35
-7.92553e-34
-3.9243e-29
-9.78179e-47
-2.59806e-49
-4.20846e-53
-5.14725e-57
-5.44198e-61
-5.51183e-65
-4.05505e-68
-3.7231e-67
-3.28544e-66
-2.53408e-65
-1.70958e-64
-1.01596e-63
-2.79677e-61
-2.78669e-57
-3.55435e-53
-2.40376e-49
-7.00839e-46
-4.18912e-43
-9.98789e-41
-4.70061e-38
-2.5807e-36
-4.10263e-34
-2.58797e-29
-6.17068e-49
-1.75667e-51
-2.70789e-55
-3.25411e-59
-3.37494e-63
-3.31643e-67
-8.47789e-71
-5.25924e-70
-4.38492e-69
-3.14849e-68
-1.94657e-67
-1.11531e-66
-8.57899e-64
-1.13283e-59
-1.5423e-55
-1.02911e-51
-3.20761e-48
-3.27563e-45
-3.19705e-42
-2.26653e-39
-1.54588e-37
-1.45073e-34
-9.92374e-30
-2.92227e-51
-8.96494e-54
-1.27108e-57
-1.44493e-61
-1.42398e-65
-1.32346e-69
-1.94108e-73
-6.70981e-73
-5.24622e-72
-3.47864e-71
-1.95277e-70
-1.16282e-69
-2.05887e-66
-3.16751e-62
-4.10546e-58
-2.44854e-54
-7.30478e-51
-1.37443e-47
-3.81308e-44
-4.66766e-41
-4.78642e-39
-2.76854e-35
-1.9618e-30
-1.05761e-53
-3.53325e-56
-4.48536e-60
-4.67608e-64
-4.26649e-68
-3.67064e-72
-4.05258e-76
-7.83966e-76
-5.71366e-75
-3.47696e-74
-1.75941e-73
-1.25032e-72
-3.94573e-69
-6.31541e-65
-7.18394e-61
-3.50641e-57
-8.83446e-54
-1.97796e-50
-7.1888e-47
-1.89276e-43
-5.10178e-41
-2.13161e-36
-1.52045e-31
-3.04319e-56
-1.08583e-58
-1.20459e-62
-1.1259e-66
-9.32543e-71
-7.30609e-75
-6.77081e-79
-8.49927e-79
-5.75017e-78
-3.19792e-77
-1.45241e-76
-1.47274e-75
-6.22541e-72
-9.48105e-68
-8.95584e-64
-3.34449e-60
-6.34904e-57
-1.03672e-53
-1.1284e-50
-6.8664e-49
-2.53729e-44
-2.79815e-38
-1.95156e-33
1
1
1
0.999929
1
1
1
1
1
1
1
1
0.999999
0.999999
1
1
0.628661
0.879454
0.999865
0.999987
1.11169e-09
9.97207e-07
0.000441998
0.788127
6.13657e-10
2.91793e-06
2.38688e-06
0.000458526
1.10361e-09
3.28461e-08
2.1811e-05
3.21762e-05
0.000171194
2.78235e-08
7.69005e-06
2.82986e-05
0.000348253
7.15971e-08
9.71077e-08
2.72977e-05
0.000147407
8.26574e-08
1.12146e-07
7.15443e-06
1.59674e-05
3.03087e-05
2.29182e-06
2.48953e-07
0.000346848
0.000346848
0.000345474
0.000330236
4.85986e-06
2.08749e-05
6.72774e-06
1.00006e-08
4.43389e-11
3.16285e-11
7.5083e-11
3.06313e-10
1.75736e-11
1.66341e-11
1.82033e-11
3.36755e-11
-1.27464e-11
-2.5434e-11
9.808e-09
1.45183e-09
3.91892e-09
2.43899e-05
0.00046674
2.68198e-05
6.79813e-05
0.00899384
0.0106385
0.0106385
0.000230562
0.0106283
0.0106306
0.0105742
8.5708e-06
2.42542e-05
0.00109683
0.000101338
7.62597e-08
4.70791e-07
4.044e-07
5.19955e-06
5.33006e-10
-1.94645e-09
2.27544e-09
1.11864e-09
1.34245e-12
1.76462e-11
1.03868e-11
6.68322e-12
1.45826e-15
2.93106e-14
2.19263e-13
4.85898e-13
5.29317e-19
4.24982e-18
3.21377e-17
2.58121e-16
3.17068e-22
1.17902e-21
8.1241e-21
2.49066e-21
1.16637e-25
8.02555e-25
6.04831e-24
2.92198e-24
1.76904e-26
8.24717e-26
3.65492e-25
1.23697e-24
8.92184e-28
3.99983e-27
1.70542e-26
6.7704e-26
6.08665e-29
3.14438e-28
1.57051e-27
7.57632e-27
1.99035e-28
1.02983e-27
5.16977e-27
2.38855e-26
3.54662e-28
1.75907e-27
8.5969e-27
3.63557e-26
2.95247e-30
-2.36707e-28
-1.16202e-26
3.95919e-26
-1.1413e-27
-1.0167e-26
-3.0266e-25
0
-2.8163e-27
-3.60388e-26
-1.32582e-24
4.79267e-24
-3.55174e-27
-8.44582e-26
-9.79515e-25
7.02844e-18
-2.86176e-27
-1.29357e-25
1.6992e-23
2.24614e-16
-1.50742e-27
-1.12454e-25
8.05896e-23
4.0613e-16
-4.6322e-28
-4.81471e-26
3.35199e-23
2.69589e-19
-6.25066e-29
-8.06974e-27
5.52627e-25
9.59376e-18
-1.51802e-30
-2.29804e-28
-8.14782e-29
-8.22296e-26
1
0.999999
0.999994
0.998626
0.0671784
0.000105643
8.17737e-05
0.192565
0.213143
7.73343e-05
7.53429e-05
0.00119081
1.40094e-05
0.00495998
8.68279e-06
7.40194e-06
0.000535471
0.000102639
0.337374
1
1
0.997448
0.0833712
4.01325e-05
0.000101095
8.20944e-05
0.484264
8.64419e-05
7.7419e-05
4.09563e-05
1.0679e-05
1.0679e-05
0.00539958
0.000188167
0.000193528
2.95862e-06
3.28012e-07
0.72607
1
0.999978
0.00137312
3.96931e-06
1.34093e-05
0.000508813
8.08731e-05
0.467175
0.000111362
0.000151807
2.52977e-05
1.0737e-05
1.93089e-05
1.75249e-05
0.0070506
2.72046e-05
4.5159e-07
3.29101e-07
0.89619
0.999999
0.197227
8.44916e-07
1.73724e-06
7.05348e-05
0.000356809
0.177565
0.199239
0.000488016
0.0260971
0.174049
0.00175738
2.26072e-05
1.15623e-05
0.00668103
0.000471566
4.0099e-07
3.99646e-07
0.993021
0.997212
8.07624e-07
8.07624e-07
1.56692e-06
6.98333e-05
0.0089543
0.0130235
0.00494968
0.00113736
0.999176
0.999669
0.00801588
1.91983e-05
1.14205e-05
1.1416e-05
0.00216114
4.54741e-07
4.54886e-07
0.998905
0.942189
1.07507e-06
1.07507e-06
0.000345293
0.000274382
8.15733e-05
0.000431347
0.00169335
0.658857
0.999599
0.999669
0.168716
1.91054e-05
1.12806e-05
0.000256023
0.00338526
4.76595e-07
0.0505598
0.9989
0.393122
0.0490222
2.77919e-06
7.26977e-06
0.00021339
1.52008e-05
1.56562e-05
2.36603e-05
0.280077
0.997463
0.999636
0.257007
1.34611e-05
1.12236e-05
1.12194e-05
0.00168053
1.40758e-06
0.0546625
0.998851
0.067593
0.483348
0.00153693
0.0218264
0.00710419
9.26829e-06
9.37006e-06
8.01525e-06
0.657588
0.337654
0.997143
0.108411
1.12822e-05
1.12154e-05
1.12155e-05
0.00682412
0.00174821
0.256426
0.998817
6.62688e-05
0.373176
0.253788
0.000621244
0.00977319
9.41923e-05
0.000159279
0.0538849
0.68184
0.0118869
0.927232
0.0146038
0.000474567
1.4318e-05
1.12152e-05
0.00670287
0.000441231
0.0734711
0.995323
7.6926e-06
0.000218515
0.389196
0.171971
0.0221714
0.000132757
0.0751151
0.484183
0.016224
3.0457e-05
0.203603
0.184368
0.00022782
0.00039526
0.0001666
0.000935195
0.000310553
0.00044257
0.622504
1.19904e-06
6.36081e-06
6.96691e-05
0.140823
0.241188
0.256663
0.208939
0.00240716
3.701e-06
2.01177e-06
0.0508154
0.658945
0.000223624
0.000242753
0.132796
0.611691
0.277047
0.197515
0.480834
2.8523e-07
8.12044e-05
0.000174204
1.63873e-06
4.6625e-05
3.10817e-05
1.46747e-05
9.36347e-07
1.04782e-07
2.60313e-07
2.18229e-05
0.421222
0.194893
0.000331145
0.727296
0.814919
0.0732538
0.0762007
0.920125
0.000140064
2.29204e-05
5.07466e-08
1.93669e-05
1.92433e-05
2.87188e-07
8.31454e-07
1.17175e-07
1.08272e-07
1.03384e-06
0.000109896
0.00316925
0.461604
0.536542
0.174525
0.931764
0.0746143
0.995925
0.995931
8.89532e-09
1.68172e-09
2.4185e-09
3.67934e-10
4.55206e-09
4.50567e-08
6.87978e-07
0.000352992
0.00163986
0.000377624
0.183757
0.610375
0.583431
0.331516
0.302195
0.932658
0.365136
0.966704
0.9773
1.01636e-09
2.17771e-09
6.02678e-10
2.5051e-10
3.89866e-10
2.27745e-08
1.58685e-06
0.000171676
0.000922953
0.27449
0.597334
0.990587
0.991935
0.991936
0.989823
0.797411
0.98437
0.995859
0.981099
6.06976e-11
2.51129e-10
3.44776e-10
2.53493e-10
2.74752e-10
3.81015e-09
4.06981e-07
0.000722824
1.5159e-05
3.60662e-07
6.83238e-05
0.111612
0.991645
0.991704
0.917116
0.798426
0.995806
0.995638
0.994986
3.36491e-10
3.95422e-10
4.7158e-10
1.1581e-09
9.399e-10
8.19702e-10
3.14919e-08
1.38337e-06
1.54656e-06
4.58767e-08
3.56178e-06
0.000295861
0.389119
0.991076
0.989809
0.986755
0.823095
0.606724
0.59259
3.93131e-06
1.79669e-07
9.50816e-08
4.8257e-05
0.000276711
1.81221e-10
8.54221e-09
4.58903e-08
2.44922e-08
3.84833e-08
0.00372981
3.55681e-06
0.000116178
0.411175
0.857136
0.140511
7.21195e-05
0.0337662
0.551251
0.0106651
0.00126584
1.61187e-05
0.000402198
0.00538628
0.00538628
1.69393e-06
3.69987e-08
2.24084e-08
0.00120423
0.00314063
1.89128e-06
1.1701e-06
1.17146e-06
1.24986e-06
2.81532e-06
0.000635578
0.0078769
0.0496161
0.00978078
0.0101229
0.00966822
0.00447083
0.000618468
0.00483952
0.0043508
1.60483e-06
1.79671e-07
0.00423056
1.29997e-05
9.40304e-05
1.17157e-06
1.18637e-06
1.56423e-06
3.75015e-06
2.73566e-05
0.000108849
0.00136073
1.43447e-06
3.10391e-06
0.00327738
0.0055225
0.0049082
0.000137896
0.00470784
0.000140235
6.65994e-06
0.00422858
2.45984e-05
6.73776e-05
6.56883e-06
1.36017e-06
2.82273e-06
0.000150744
1.841e-05
1.65984e-05
0.000477587
5.4892e-06
1.23056e-05
3.2813e-06
6.70496e-07
0.00362833
0.000174464
0.00494634
0.00232319
1.55931e-05
0.0042044
0.000183957
0.00152939
0.00152794
0.000168338
1.10376e-05
0.00067082
0.00075076
5.6421e-05
0.00178376
2.82886e-06
6.01997e-06
3.70682e-05
4.50422e-06
1.89267e-07
0.000288601
0.000731984
0.00481713
4.00481e-05
4.0303e-05
0.000480274
0.000955273
3.00193e-06
0.00202231
0.00159443
0.00201946
0.000437591
0.000813356
0.142657
3.31728e-12
1.27393e-11
1.08566e-05
5.24981e-10
2.18547e-05
0.000323111
2.77139e-07
0.00024899
2.43283e-05
2.46099e-06
8.39059e-07
1.47576e-06
1.06134e-06
2.89977e-09
0.00206217
0.00206217
0.000140109
0.0895239
0.177678
9.52744e-13
1.28679e-12
3.39542e-10
5.14384e-10
3.7419e-05
0.00101077
3.39878e-07
4.53556e-07
5.33221e-07
5.82749e-08
1.66994e-08
9.03252e-09
4.65235e-09
6.23802e-10
3.06726e-05
8.2661e-09
0.00885842
0.00662238
0.00191172
9.97744e-14
6.55234e-14
6.62125e-14
4.09513e-13
0.000189126
0.00110818
1.24455e-06
5.20845e-08
1.57436e-08
4.79594e-09
4.01449e-10
1.30899e-10
1.6248e-10
5.02792e-12
2.07195e-08
6.46208e-08
0.0149138
0.000113107
0.00770266
2.20821e-17
1.80614e-14
2.57195e-12
4.04108e-13
0.00013355
0.00132314
0.000948613
0.000153421
3.40815e-07
1.28653e-09
3.3462e-10
2.35498e-11
9.41727e-12
3.44927e-12
8.42262e-08
2.86993e-08
0.00615124
0.00025407
1.35781e-05
3.15727e-22
4.11654e-16
6.98348e-14
3.08379e-13
1.66364e-11
1.40903e-05
0.0223055
0.0223255
0.00275241
8.38407e-06
1.78596e-07
3.26416e-09
7.07426e-11
4.48696e-12
1.35778e-11
9.94893e-12
0.000288419
2.03242e-05
1.27094e-05
5.47061e-24
6.10653e-18
1.71173e-14
4.54372e-13
1.78086e-13
1.52155e-07
0.0192213
0.0223255
0.00133729
0.00211213
0.00191326
5.55722e-07
8.81208e-09
1.35597e-10
9.0353e-12
7.00116e-11
2.49929e-05
1.15728e-05
1.15942e-05
1.6319e-20
1.00478e-15
4.40207e-13
6.43868e-12
3.03837e-12
0.000714485
6.19179e-05
0.0220325
0.00142259
0.00138608
0.00235268
0.000169614
1.24217e-07
6.93703e-10
2.39319e-10
2.6314e-10
3.63392e-06
1.0117e-05
1.24446e-05
1.24771e-18
3.73247e-15
7.88403e-13
6.89161e-12
3.17059e-12
0.00010934
0.000293837
0.00114743
0.017527
0.00141795
0.0023656
0.00104503
1.02012e-07
1.1719e-09
4.38821e-10
0.00025209
8.66464e-05
2.36678e-05
1.46442e-05
9.40065e-18
1.55771e-14
1.90362e-13
3.48841e-12
3.15407e-12
0.00120966
0.00118214
1.63808e-06
0.00531705
0.0017031
0.00144386
5.85932e-05
5.33125e-08
4.45011e-09
8.46148e-08
0.000745999
0.0217813
0.00533456
2.30056e-05
1.8965e-17
6.4295e-16
1.08927e-09
3.58489e-12
0.000435497
0.00119923
3.47913e-06
6.56855e-06
5.07303e-07
0.00226569
7.18688e-05
1.29349e-07
3.95536e-09
3.94834e-09
1.97051e-07
0.00407734
0.0209711
0.0201426
5.70592e-05
4.79975e-18
7.94255e-17
1.11869e-07
4.14805e-07
3.44303e-08
3.30133e-07
2.74739e-06
1.56315e-05
8.17131e-08
0.00169972
2.69782e-06
5.60189e-09
4.51888e-09
1.11253e-08
0.000355417
0.0219846
9.35426e-07
3.85884e-09
0.00541211
5.28852e-19
2.65984e-18
3.61406e-09
3.97036e-09
3.3085e-05
2.9955e-05
1.11149e-07
1.85806e-08
1.04597e-08
0.00084413
1.27674e-09
1.4707e-09
3.8604e-09
8.05936e-05
0.000229853
0.0213012
3.09403e-07
1.3831e-09
0.0158821
2.24027e-17
3.86309e-18
2.02679e-09
3.18778e-06
4.66146e-05
3.12154e-09
1.11607e-07
1.47024e-07
9.88664e-09
0.00105078
5.70738e-10
6.79412e-10
4.17108e-07
2.85968e-05
8.05204e-05
0.00407355
6.57395e-08
3.71222e-09
4.15793e-09
1.00618e-16
-5.78095e-13
8.38123e-05
2.95701e-05
2.11221e-09
1.83709e-10
4.09583e-07
2.36173e-07
8.92355e-09
0.00105029
5.531e-10
5.85362e-10
2.73562e-07
7.69115e-07
0.018492
0.000251687
1.01641e-08
2.5494e-09
0.00261356
1.91105e-16
1.51036e-05
0.000107363
3.86514e-07
1.85788e-08
4.6786e-12
3.21165e-12
1.03576e-09
0.000107128
0.000253205
5.53081e-10
1.67682e-09
1.14635e-08
0.000127956
0.0183098
2.63278e-06
8.44685e-10
5.57273e-09
0.015326
-2.31938e-17
1.0851e-08
9.91174e-09
6.68017e-08
3.71188e-09
1.21219e-13
3.28454e-13
1.70081e-09
0.000702941
0.000520019
6.11597e-10
1.08202e-08
2.33157e-06
0.0152707
2.89622e-05
5.29668e-09
9.01323e-09
1.24567e-09
0.00576057
3.74513e-10
3.92092e-12
9.64294e-08
3.69335e-09
4.13868e-13
6.93185e-14
-5.55251e-13
2.82196e-06
0.000688981
0.00128664
5.45181e-09
7.27175e-07
0.0033943
0.00452234
1.94172e-09
5.65941e-13
5.65941e-13
2.07956e-07
7.09198e-09
8.62328e-12
3.86883e-12
1.79166e-23
4.80005e-14
4.70883e-13
1.05924e-18
7.3047e-11
2.67755e-05
6.91965e-05
0.000811715
2.34045e-07
7.77991e-05
0.0122117
0.000259786
-1.03689e-11
0
6.277e-30
2.02786e-08
2.429e-05
-1.27603e-23
-7.92099e-23
-2.99357e-24
4.57391e-13
8.20808e-16
1.47874e-20
-4.39806e-14
1.35957e-06
0.00032552
9.37485e-05
4.88852e-06
0.00326812
-9.67972e-22
-1.1314e-29
-1.01461e-27
-3.05501e-22
-1.35208e-17
-5.4222e-16
-4.43641e-17
1
1
1
1
1
1
1
1
1
1
1
1
1
1
1
1
0.993791
0.901167
0.999797
0.994886
0.984942
0.998474
0.999972
1
1
1
1
1
1
1
1
1
1
1
1
1
1
1
1
1
0.969223
0.991406
0.999905
0.995984
0.953624
0.999972
1
1
1
1
1
1
1
1
1
1
1
1
1
1
1
1
1
1
1
0.999997
0.887424
0.841237
0.999972
1
1
1
1
1
1
1
1
1
1
1
1
1
1
1
1
1
1
1
1
0.841524
0.851538
0.999995
1
1
1
1
1
1
1
1
1
1
1
1
1
1
1
1
1
1
1
1
0.999994
1
0.999998
1
1
1
1
1
1
1
1
1
1
1
1
1
1
1
1
1
1
1
1
1
1
0.999997
1
1
1
0.999998
1
1
1
1
1
1
1
1
1
1
1
1
1
1
1
1
1
1
0.999997
1
0.999997
0.999725
0.954727
0.999993
1
1
1
1
1
1
1
1
1
1
1
1
1
1
1
1
1
0.999997
0.760562
0.909424
0.934282
0.934334
0.949926
0.975522
0.961381
0.961063
0.99784
0.967959
0.635497
0.67479
0.674882
0.668414
0.721801
0.776232
0.635808
0.637972
0.392364
0.000365764
0.149348
0.281501
0.00120889
0.843363
0.997747
0.997805
0.997895
0.997912
0.536659
0.000571763
0.00121455
0.111909
0.246118
0.295395
0.294351
0.628248
0.964413
0.823074
3.63629e-06
3.61121e-06
3.72484e-06
8.66491e-05
0.991992
0.99749
0.950255
0.981354
0.992638
0.00142534
0.000242001
0.00152352
0.00156329
0.00145126
0.00152684
0.00317065
0.0139946
0.853578
0.967164
8.81821e-06
3.66048e-06
2.41645e-05
0.535989
0.996143
0.997339
0.980278
0.76267
0.860804
0.000368264
0.000140194
0.00013342
0.000134045
0.000177131
0.000324944
0.00194656
0.00230616
0.971746
0.972565
2.05147e-05
1.25206e-05
0.00196509
0.997526
0.997946
0.99128
0.707795
0.632951
0.147548
0.000838179
0.0017614
0.000196773
0.00134526
0.00625905
0.00266542
0.000444963
0.000572744
0.769818
0.990457
5.91305e-05
0.000409281
0.946121
0.999594
0.99919
0.0668544
0.0633422
0.0803756
0.0167042
0.000657418
0.000786513
0.00344092
0.00772882
0.00515931
0.0021683
0.00260993
0.00821131
0.0344656
0.990458
5.80002e-06
0.872565
0.999848
0.999752
0.65892
0.0168018
0.156185
0.546089
0.0074134
0.00108393
0.000534221
0.00381743
0.00772101
1.26327e-05
7.22108e-06
1.86318e-05
0.00505556
0.00447479
0.990411
0.732586
0.999988
0.999928
0.999636
0.108284
0.010686
0.252491
0.6044
0.000723129
0.00127428
0.000379038
0.00730173
0.00744343
7.51062e-06
7.22108e-06
7.38157e-06
0.00392723
2.95988e-05
0.990021
0.851981
0.602586
0.152782
0.549759
0.841926
0.915373
0.969997
0.99605
1
1
1
1
1
1
1
1
1
1
1
1
1
1
1
1.96254e-07
0.00187493
-1.36137e-13
8.12658e-14
2.60018e-13
2.58212e-11
5.09724e-09
4.67788e-07
0.0273598
0.171125
0.461337
0.785239
1
1
1
1
1
1
1
1
1
1
1
7.8173e-06
2.2014e-05
-1.87805e-33
7.24558e-14
1.63159e-13
5.68015e-14
3.91177e-12
3.34115e-05
3.72385e-05
3.43926e-07
3.43926e-07
3.15313e-06
0.0248616
0.209505
0.5673
0.954646
1
1
1
1
1
1
1
7.62023e-08
4.4169e-06
7.35692e-16
2.15503e-11
8.08543e-14
-1.60274e-13
-1.43305e-14
2.48238e-13
9.55683e-06
1.45098e-05
1.65918e-06
4.97431e-06
1.09334e-05
5.3139e-06
3.08237e-06
4.19238e-07
0.0641761
0.265649
0.593337
0.914502
0.975577
0.999985
0.999995
2.27844e-13
2.29793e-11
1.11141e-10
8.61353e-15
-2.00297e-13
-2.99224e-13
2.05413e-13
3.26002e-12
2.30247e-12
4.01582e-09
7.2263e-08
5.34896e-07
3.2399e-07
7.79636e-09
1.18159e-05
1.5131e-05
6.99824e-08
6.99824e-08
7.21146e-08
8.22225e-08
3.30499e-07
0.0567657
0.361137
9.3571e-16
1.30536e-14
5.79387e-16
-4.63825e-14
-1.36253e-13
-1.51731e-13
9.64265e-13
5.66838e-12
5.6158e-12
1.78771e-07
1.47019e-07
5.13721e-08
1.70922e-06
3.55021e-09
1.47947e-07
8.66285e-08
6.80247e-09
7.96173e-07
1.14075e-06
2.5544e-07
7.93186e-08
8.31117e-08
2.64965e-09
-5.60381e-17
1.14107e-18
-4.56491e-15
-2.21035e-14
-6.28805e-14
-4.43055e-14
5.94116e-13
3.38199e-12
4.26449e-12
6.31022e-12
2.88114e-09
5.9006e-09
1.73327e-11
7.9784e-09
1.18804e-08
2.2314e-10
5.38303e-11
4.55761e-12
7.00504e-07
4.40431e-07
9.16475e-10
3.85329e-09
6.13379e-10
-1.46742e-17
-1.58235e-16
-1.66864e-15
-8.1381e-15
-2.07572e-14
-1.19938e-14
6.69924e-14
4.79723e-13
5.96373e-12
1.98645e-10
2.69619e-09
1.36095e-10
5.0284e-12
4.26968e-10
9.51072e-09
7.03308e-09
4.49426e-12
1.2058e-11
4.68685e-12
5.1194e-09
4.22275e-09
4.2051e-07
1.50811e-08
-2.59568e-18
-3.40474e-17
-4.62331e-16
-2.31033e-15
-5.29558e-15
-3.13101e-15
1.95989e-15
8.43966e-14
4.40319e-12
2.48656e-12
1.8875e-13
5.59456e-13
1.68557e-12
1.1269e-12
2.58727e-13
2.58722e-13
2.15187e-12
1.04167e-11
1.99158e-11
2.65493e-09
0.000100164
0.000517959
0.000458385
-3.99333e-19
-5.69128e-18
-1.02493e-16
-5.12877e-16
-1.08091e-15
-7.00287e-16
8.97833e-18
6.29349e-15
5.50446e-14
4.63778e-14
6.42386e-14
1.57895e-13
2.91992e-13
2.29189e-13
1.44165e-13
1.75574e-13
2.97912e-13
3.3199e-11
1.08855e-10
2.67024e-10
6.96813e-05
0.000380363
0.000517383
-2.81734e-19
-7.56714e-19
-1.83544e-17
-9.10634e-17
-1.78e-16
-1.22161e-16
-1.22843e-17
8.83836e-17
7.60894e-16