/*--------------------------------*- C++ -*----------------------------------*\
| =========                 |                                                 |
| \\      /  F ield         | OpenFOAM: The Open Source CFD Toolbox           |
|  \\    /   O peration     | Version:  v1912                                 |
|   \\  /    A nd           | Website:  www.openfoam.com                      |
|    \\/     M anipulation  |                                                 |
\*---------------------------------------------------------------------------*/
FoamFile
{
    version     2.0;
    format      ascii;
    class       volScalarField;
    location    "0.6";
    object      p;
}
// * * * * * * * * * * * * * * * * * * * * * * * * * * * * * * * * * * * * * //

dimensions      [1 -1 -2 0 0 0 0];


internalField   nonuniform List<scalar> 
9072
(
481.009
508.03
510.739
520.202
533.684
544.937
555.947
569.69
586.291
605.406
626.695
649.802
674.335
699.867
726.018
752.31
776.339
793.185
798.312
819.773
816.429
812.279
876.841
420.785
447.923
450.325
459.574
473.9
485.473
496.514
510.235
526.907
546.102
567.463
590.644
615.243
640.79
666.802
692.669
716.918
736.177
738.213
758.649
762.194
720.432
790.021
359.911
386.872
388.059
396.609
413.097
425.471
436.532
450.283
466.97
486.214
507.696
531.063
555.859
581.538
607.493
632.928
656.424
675.344
683.025
706.33
717.785
647.035
702.511
299.521
325.28
323.985
329.366
350.798
365.446
376.301
389.928
406.531
425.791
447.442
471.098
496.222
522.172
548.244
573.594
596.981
616.559
630.736
650.559
662.211
611.009
650.094
241.143
263.375
257.489
255.697
286.056
305.772
315.934
329.232
345.62
364.843
386.713
410.769
436.363
462.741
489.114
514.638
538.279
558.831
575.965
593.602
603.694
584.663
614.636
185.876
202.29
192.148
184.842
223.275
246.313
255.205
268.086
284.17
303.321
325.49
350.081
376.3
403.28
430.147
456.079
480.223
501.775
520.652
538.259
551.035
552.998
577.903
133.469
144.664
130.795
122.896
163.763
184.907
193.729
206.318
222.046
241.109
263.727
289.014
316.041
343.817
371.372
397.911
422.726
445.254
465.441
483.775
498.921
510.586
533.189
81.1158
91.8629
73.9888
57.4907
97.2217
119.741
131.077
143.789
159.132
178.065
201.378
227.537
255.581
284.363
312.809
340.127
365.732
389.198
410.496
429.816
446.784
462.559
483.532
359.968
358.552
372.867
368.974
426.262
884.555
758.562
613.636
672.621
1123.29
522.016
200.537
176.624
176.591
171.616
215.9
338.596
1749.46
2646.3
327.995
323.807
327.611
324.237
340.212
723.733
621.772
483.5
560.735
912.135
179.186
150.442
149.649
150.526
148.095
152.855
170.106
1175.29
2410.38
327.823
323.433
323.397
323.672
317.534
510.856
440.475
324.284
386.797
256.939
152.982
149.349
149.026
148.495
146.336
145.496
142.615
408.246
2109.2
324.137
323.367
323.274
323.551
282.112
321.187
236.711
160.358
349.285
145.014
150.179
148.649
148.695
148.547
146.485
144.788
142.5
165.448
1605.11
323.72
323.386
323.064
312.701
223.551
145.876
52.5942
11.573
320.509
148.016
147.916
148.337
148.576
148.338
145.819
144.174
142.83
147.051
1015.97
323.875
323.348
319.291
260.764
156.715
46.0625
-4.59585
-21.085
160.007
146.863
146.733
148.103
148.825
146.536
142.939
142.383
143.196
146.584
406.251
323.965
322.426
283.113
204.359
86.5904
-0.701297
-5.88089
-54.0455
137.361
146.04
145.502
147.235
147.318
143.59
142.289
141.829
142.708
143.888
156.213
305.295
297.151
233.508
151.58
20.241
-5.27411
-6.39514
-61.3066
131.292
144.354
143.794
144.126
143.337
142.564
141.921
141.56
142.476
142.854
141.661
6.9118
22.9872
15.129
15.0879
28.7632
40.3028
49.7014
61.6966
76.8755
95.604
120.766
148.211
177.819
208.156
238.065
266.576
293.321
317.933
340.498
361.116
379.971
397.565
415.625
1.45879
1.50314
1.47523
1.4168
1.20855
1.19778
1.29695
1.4103
1.56681
3.82412
10.8011
23.9254
49.1315
81.8582
115.379
145.782
174.732
201.24
225.61
247.934
268.977
289.514
310.145
1.25681
1.30324
1.2524
1.13623
1.00294
1.08389
1.1797
1.25126
1.29016
1.31101
1.36004
1.40822
1.47941
4.19093
12.9931
33.3706
58.1387
85.4577
111.234
134.624
156.949
179.146
203.135
1.05864
1.12292
1.08915
1.05052
0.99635
1.01696
1.06221
1.1078
1.14384
1.17873
1.21182
1.24459
1.26572
1.29968
1.35707
1.37396
1.78835
5.25934
16.4341
29.8037
45.8776
65.2661
91.5735
0.883866
0.958807
0.940236
0.920021
0.903545
0.911915
0.937742
0.969504
1.00078
1.03245
1.06752
1.09969
1.13086
1.16482
1.20576
1.23642
1.27428
1.32603
1.38652
1.41096
1.48592
1.68943
6.00769
0.718538
0.794753
0.785964
0.778501
0.775825
0.784294
0.803256
0.828478
0.856608
0.887012
0.919078
0.953481
0.987607
1.02616
1.06807
1.10805
1.15461
1.2057
1.25488
1.30284
1.34962
1.41683
1.49217
0.556481
0.633812
0.630606
0.629718
0.633107
0.643241
0.660267
0.682632
0.708868
0.738329
0.770818
0.806006
0.843802
0.884027
0.92848
0.973486
1.02381
1.07779
1.13307
1.19124
1.25557
1.32215
1.39072
0.39409
0.473104
0.472703
0.475488
0.482117
0.493702
0.510483
0.53195
0.557465
0.586626
0.619257
0.655212
0.694469
0.737137
0.783399
0.833977
0.888756
0.94719
1.00818
1.07191
1.13953
1.21536
1.2723
0.228844
0.310504
0.311931
0.316861
0.325382
0.338032
0.355025
0.376256
0.401504
0.430607
0.463516
0.500269
0.540992
0.585924
0.635421
0.689833
0.749048
0.812156
0.87716
0.940708
0.99969
1.06184
1.10458
0.0595738
0.144777
0.147997
0.154382
0.164084
0.177426
0.194622
0.215755
0.240842
0.269897
0.303018
0.340409
0.382352
0.42923
0.481545
0.539722
0.603663
0.672235
0.742508
0.807857
0.863355
0.892875
0.894838
-0.11256
-0.0241282
-0.0189453
-0.0115122
-0.00113787
0.0125157
0.0296999
0.0506068
0.0753915
0.104206
0.137266
0.174915
0.217601
0.265881
0.320486
0.382089
0.450888
0.526087
0.605337
0.682567
0.755862
0.792113
0.75609
-0.284001
-0.194808
-0.188384
-0.180452
-0.169898
-0.156327
-0.139464
-0.119063
-0.094882
-0.0666769
-0.0341406
0.00317545
0.0458679
0.0946954
0.150665
0.214813
0.287772
0.369492
0.458765
0.551022
0.639598
0.694209
0.6636
-0.454745
-0.366026
-0.359971
-0.352234
-0.341973
-0.328868
-0.31267
-0.293125
-0.269958
-0.242862
-0.211478
-0.175289
-0.133582
-0.0854246
-0.029558
0.0354294
0.110628
0.196681
0.293678
0.399219
0.505589
0.592184
0.616242
-0.628434
-0.538897
-0.533958
-0.526841
-0.517228
-0.504926
-0.489733
-0.471423
-0.449726
-0.42432
-0.394838
-0.360746
-0.321251
-0.275319
-0.221545
-0.158307
-0.0841734
0.0021409
0.101679
0.214139
0.335075
0.454375
0.560193
-0.805507
-0.714799
-0.710651
-0.704269
-0.695524
-0.68429
-0.670419
-0.653722
-0.633964
-0.610863
-0.584093
-0.55315
-0.517246
-0.475355
-0.426117
-0.367931
-0.299249
-0.218497
-0.123865
-0.0140942
0.110136
0.244837
0.395485
-0.985158
-0.893524
-0.88996
-0.884364
-0.876635
-0.866681
-0.854405
-0.839672
-0.822306
-0.802109
-0.778843
-0.752092
-0.72118
-0.685245
-0.643207
-0.59377
-0.53567
-0.467578
-0.387492
-0.293119
-0.182045
-0.0505871
0.116517
-1.16704
-1.07461
-1.07161
-1.06685
-1.06025
-1.05174
-1.04128
-1.02882
-1.01424
-0.99747
-0.978392
-0.956757
-0.932115
-0.903933
-0.871628
-0.834561
-0.792297
-0.744635
-0.690872
-0.629612
-0.558829
-0.470229
-0.340419
-1.35085
-1.25774
-1.25528
-1.25139
-1.24599
-1.23904
-1.23057
-1.22061
-1.20913
-1.19617
-1.18179
-1.16596
-1.14857
-1.12954
-1.10897
-1.0872
-1.06524
-1.04514
-1.0299
-1.02377
-1.03502
-1.0715
-1.14781
-1.53624
-1.44258
-1.44064
-1.43762
-1.43344
-1.42812
-1.42173
-1.4144
-1.40619
-1.39727
-1.38788
-1.37824
-1.36861
-1.35948
-1.3517
-1.34681
-1.34764
-1.35936
-1.3908
-1.45797
-1.59518
-1.88306
-2.59587
-1.72286
-1.62877
-1.6273
-1.62512
-1.62216
-1.61847
-1.61419
-1.6095
-1.6046
-1.59975
-1.59538
-1.59195
-1.59008
-1.59079
-1.59568
-1.60736
-1.63039
-1.67291
-1.74938
-1.88769
-2.15021
-2.7035
-4.08253
-1.9103
-1.81594
-1.81488
-1.8135
-1.81171
-1.8096
-1.80737
-1.80525
-1.80354
-1.80259
-1.80299
-1.80544
-1.81082
-1.82054
-1.83676
-1.86285
-1.90436
-1.97088
-2.0791
-2.2598
-2.5755
-3.17138
-4.40808
-2.09809
-2.00367
-2.00298
-2.00234
-2.00164
-2.00101
-2.00068
-2.00097
-2.0022
-2.00483
-2.00953
-2.01719
-2.02888
-2.04617
-2.07149
-2.10848
-2.16277
-2.24349
-2.36499
-2.5518
-2.84386
-3.30583
-4.01893
-2.28576
-2.19154
-2.19122
-2.19126
-2.19156
-2.19227
-2.19367
-2.19609
-2.19994
-2.20569
-2.21407
-2.22604
-2.2428
-2.26592
-2.2977
-2.34165
-2.40268
-2.48816
-2.60854
-2.77828
-3.01603
-3.34166
-3.76361
-2.47298
-2.37916
-2.37923
-2.37989
-2.38107
-2.38296
-2.38586
-2.39012
-2.39615
-2.40449
-2.41584
-2.43114
-2.4516
-2.47873
-2.51454
-2.56188
-2.62469
-2.70822
-2.81884
-2.96358
-3.14872
-3.37599
-3.63349
-2.65959
-2.56626
-2.56671
-2.56792
-2.56985
-2.57275
-2.5769
-2.58266
-2.59044
-2.60077
-2.61435
-2.63205
-2.65495
-2.68438
-2.72199
-2.76997
-2.83116
-2.90891
-3.00663
-3.1268
-3.26976
-3.43108
-3.59731
-2.84537
-2.75261
-2.75341
-2.75508
-2.75764
-2.76136
-2.76651
-2.77343
-2.78252
-2.79428
-2.80937
-2.82857
-2.85279
-2.88312
-2.92084
-2.96752
-3.02508
-3.09552
-3.18028
-3.27955
-3.39146
-3.51068
-3.62676
-3.03042
-2.93814
-2.93917
-2.94118
-2.94423
-2.94859
-2.9545
-2.96226
-2.97224
-2.9849
-3.00084
-3.02073
-3.04535
-3.07553
-3.11218
-3.15638
-3.20935
-3.27222
-3.3454
-3.42812
-3.51805
-3.61084
-3.69955
-3.21458
-3.12278
-3.12395
-3.12611
-3.12948
-3.13428
-3.14072
-3.14902
-3.15951
-3.17262
-3.18885
-3.20878
-3.23304
-3.26228
-3.29713
-3.33825
-3.38636
-3.44209
-3.50543
-3.5754
-3.64994
-3.72604
-3.79964
-3.39766
-3.30645
-3.30754
-3.30979
-3.31334
-3.31839
-3.32512
-3.3337
-3.34437
-3.35753
-3.3736
-3.39306
-3.41642
-3.44415
-3.47671
-3.5145
-3.5579
-3.60721
-3.66231
-3.72237
-3.78587
-3.85092
-3.91544
-3.57941
-3.48888
-3.48987
-3.49216
-3.49577
-3.5009
-3.50771
-3.51633
-3.52692
-3.5398
-3.55534
-3.57395
-3.59601
-3.62189
-3.65188
-3.68626
-3.72521
-3.76884
-3.817
-3.8691
-3.92417
-3.98112
-4.03906
-3.75959
-3.67
-3.67087
-3.67315
-3.67677
-3.68186
-3.68856
-3.69699
-3.70727
-3.71963
-3.73438
-3.75184
-3.77234
-3.79615
-3.82346
-3.85445
-3.88922
-3.92776
-3.96991
-4.01529
-4.06338
-4.11361
-4.16567
-3.93807
-3.84959
-3.85043
-3.85274
-3.85633
-3.8613
-3.86776
-3.87581
-3.88557
-3.89722
-3.91099
-3.92712
-3.94589
-3.96752
-3.99213
-4.01982
-4.05062
-4.08448
-4.12126
-4.16072
-4.20262
-4.24671
-4.29289
-4.115
-4.02756
-4.02857
-4.03095
-4.0345
-4.0393
-4.04542
-4.05296
-4.06204
-4.07281
-4.08545
-4.10015
-4.11712
-4.13654
-4.15848
-4.18296
-4.20997
-4.23947
-4.27134
-4.30541
-4.3416
-4.37979
-4.41995
-4.29078
-4.20411
-4.20545
-4.20792
-4.21141
-4.21597
-4.22168
-4.22863
-4.2369
-4.24667
-4.25808
-4.27128
-4.28642
-4.30362
-4.32292
-4.3443
-4.36772
-4.39316
-4.4205
-4.44962
-4.48044
-4.51291
-4.54695
-4.4659
-4.37963
-4.38133
-4.38386
-4.38721
-4.39147
-4.39671
-4.40299
-4.4104
-4.41909
-4.42921
-4.44087
-4.45415
-4.46912
-4.48581
-4.5042
-4.52425
-4.54591
-4.56909
-4.59364
-4.61944
-4.64645
-4.67454
-4.64071
-4.55456
-4.55646
-4.55895
-4.56207
-4.56595
-4.57064
-4.5762
-4.58272
-4.59031
-4.5991
-4.60918
-4.62059
-4.63335
-4.6475
-4.66303
-4.6799
-4.69805
-4.71737
-4.7377
-4.75891
-4.78089
-4.8035
-4.81533
-4.72919
-4.73107
-4.73339
-4.7362
-4.73959
-4.74367
-4.74848
-4.75408
-4.76055
-4.76801
-4.7765
-4.78604
-4.79664
-4.80835
-4.82117
-4.83506
-4.84992
-4.86565
-4.88212
-4.89918
-4.91672
-4.93458
-4.98976
-4.90357
-4.90526
-4.9073
-4.9097
-4.91256
-4.91596
-4.91998
-4.92464
-4.93
-4.93611
-4.94301
-4.95072
-4.95927
-4.96867
-4.97893
-4.99001
-5.00181
-5.01423
-5.02717
-5.04053
-5.05421
-5.06807
-5.16399
-5.07769
-5.07909
-5.08077
-5.08272
-5.085
-5.08769
-5.09088
-5.09459
-5.09882
-5.10359
-5.10893
-5.11488
-5.12148
-5.12871
-5.13655
-5.14499
-5.15393
-5.16331
-5.17306
-5.18312
-5.19345
-5.20396
-5.33803
-5.25157
-5.25263
-5.25391
-5.25536
-5.25703
-5.259
-5.26134
-5.26408
-5.26717
-5.27061
-5.27444
-5.27872
-5.28347
-5.28864
-5.29421
-5.30015
-5.30645
-5.31303
-5.31989
-5.32703
-5.33448
-5.34223
-5.51194
-5.42527
-5.42596
-5.42681
-5.42774
-5.4288
-5.43004
-5.43152
-5.43327
-5.43522
-5.43737
-5.43976
-5.44243
-5.4454
-5.44861
-5.45204
-5.45567
-5.4595
-5.46354
-5.46781
-5.47232
-5.47727
-5.48281
-5.68571
-5.59888
-5.59919
-5.59956
-5.59997
-5.60041
-5.60094
-5.60157
-5.60231
-5.60314
-5.60404
-5.60504
-5.60617
-5.60742
-5.60876
-5.61017
-5.61166
-5.61322
-5.61486
-5.61657
-5.61872
-5.62151
-5.62526
396.703
409.219
404.628
380.717
323.171
325.643
324.103
313.88
223.385
231.295
233.661
227.278
121.801
138.351
148.177
146.775
27.5724
62.6039
88.1924
88.1625
1.55286
1.60029
2.55934
10.8991
1.4579
1.50826
1.53953
1.49775
1.31924
1.35991
1.40144
1.42463
1.11341
1.14689
1.21648
1.30789
0.857358
0.906607
1.01827
1.16682
0.715656
0.765764
0.88049
1.03592
0.688215
0.760049
0.892192
1.07297
0.679054
0.780868
0.937277
1.12745
0.68628
0.785708
0.926914
1.09395
0.57485
0.697434
0.844623
1.00987
0.340378
0.496936
0.67838
0.873712
-0.091355
0.117851
0.392588
0.677935
-1.11332
-0.967038
-0.517098
0.316759
-3.91321
-4.17116
-3.58988
-2.21191
-7.80478
-10.1984
-9.17612
-6.90563
-6.67072
-7.65649
-7.37965
-6.46171
-4.8852
-5.40426
-5.78198
-5.95537
-4.17842
-4.38439
-4.54046
-4.64321
-3.84948
-3.94612
-4.01642
-4.0537
-3.72357
-3.77548
-3.81095
-3.82691
-3.71109
-3.74527
-3.76916
-3.78103
-3.76513
-3.79359
-3.81624
-3.83208
-3.8572
-3.88478
-3.90977
-3.93175
-3.96915
-3.99699
-4.02425
-4.05092
-4.0896
-4.11714
-4.14517
-4.17376
-4.21233
-4.23837
-4.26538
-4.29341
-4.33476
-4.35828
-4.38275
-4.40827
-4.45641
-4.47682
-4.49781
-4.51957
-4.57766
-4.59469
-4.61185
-4.62927
-4.69957
-4.71322
-4.72663
-4.73988
-4.82336
-4.83403
-4.8443
-4.85415
-4.95008
-4.95836
-4.9663
-4.97383
-5.08008
-5.0865
-5.09268
-5.0986
-5.21314
-5.21806
-5.22276
-5.22721
-5.34918
-5.35299
-5.3567
-5.36022
-5.4882
-5.49135
-5.49461
-5.49797
-5.62956
-5.63237
-5.63556
-5.63918
308.563
261.43
173.035
64.0094
-3.73565
-5.42542
-4.44279
-9.45721
142.946
142.806
142.885
140.476
141.127
142.072
141.816
141.691
142.566
142.938
143.19
284.069
191.379
65.8041
-4.52013
-6.71473
-7.94601
-7.42873
-5.63384
140.235
141.088
142.593
141.12
141.211
141.68
142.749
142.777
143.02
143.045
143.924
202.182
92.6792
-2.24831
-4.1405
-6.41052
-10.5062
-9.92483
12.9609
127.854
137.758
143.628
141.847
141.396
141.737
143.132
143.299
142.93
143.09
143.613
125.265
1.38184
-2.27321
-2.91253
-6.38455
-15.532
-42.4363
-3.5464
101.596
116.248
137.945
141.276
141.27
141.688
141.906
143.008
142.959
143.025
163.694
75.7061
-0.830971
-1.38075
-1.40811
-3.30731
-15.3795
-45.0091
-24.0444
56.2028
70.1894
126.646
140.874
140.799
141.323
141.602
142.709
142.765
142.721
167.245
23.7229
-0.555102
-0.735716
-0.227335
-0.107817
-0.518729
2.71653
-3.33109
-118.671
11.9222
113.098
140.512
140.554
140.959
141.355
142.331
142.513
142.757
179.394
2.00533
0.777268
0.189798
1.02566
1.55507
2.27992
4.23306
5.92658
-0.650381
33.1148
112.24
140.592
140.495
140.804
141.176
141.984
142.214
142.431
198.445
1.5203
2.41362
0.693384
1.4819
2.31265
2.97183
4.14768
4.8452
1.33894
68.382
93.0102
140.545
140.391
140.772
141.08
141.184
141.952
142.457
209.968
1.43831
3.04386
-3.11577
1.08045
0.802457
3.93614
4.53044
3.69483
-2.93808
14.9905
31.4725
140.513
140.027
140.704
141.306
142.265
142.4
143.375
202.275
1.39702
1.40347
5.46935
-0.952123
0.308491
4.99075
3.43061
5.58156
9.75763
10.0609
10.3729
138.919
139.565
140.361
141.185
142.762
142.218
143.197
197.409
1.29229
1.47607
1.82401
6.59637
8.28654
8.07329
11.309
7.47428
8.80738
9.95767
11.0227
136.127
139.528
139.443
138.645
112.833
125.56
124.098
198.685
1.36256
1.65379
2.01942
2.36869
2.84881
3.28478
4.86871
6.47904
8.02069
9.44653
10.2093
18.5298
136.192
138.503
129.365
92.3396
72.2084
82.0599
130.409
1.42057
1.78672
2.0681
2.39862
2.87162
3.54319
4.54027
5.8228
7.2173
9.03487
10.5088
9.69296
95.009
150.502
106.589
105.575
96.4375
124.885
192.915
1.34095
1.7194
2.06804
2.45431
2.91479
3.4442
4.05474
4.74927
5.73388
8.33637
0.745268
16.1816
240.136
254.994
152.999
51.724
83.2573
149.872
247.926
1.24669
1.6456
2.03339
2.44205
2.86686
3.23861
3.45381
3.10986
-0.268119
10.2668
12.9471
61.3851
162.136
156.845
100.08
46.6521
100.578
208.587
262.393
1.139
1.57153
1.97481
2.38095
2.78061
3.00905
2.81306
0.868171
-1.77125
-1.57921
-1.06924
-2.21396
44.6388
71.3139
62.3122
63.2237
123.665
238.614
236.532
1.02022
1.49435
1.89518
2.27101
2.68999
2.79699
2.30289
0.854216
-0.845581
-0.84263
-0.549345
-0.649129
-4.73578
19.2022
38.7433
40.7168
55.2217
135.29
131.172
0.876041
1.42345
1.81254
2.05177
2.50997
2.59978
1.92529
1.00846
0.289786
0.0862227
-0.573192
-1.78752
-3.09805
-7.13801
5.61973
0.107978
-1.06717
7.27103
1.24839
-0.303602
1.17867
1.71812
1.72823
1.60738
1.71584
1.39354
0.81548
0.422354
0.153788
-2.28517
-2.85766
-3.5909
-4.66883
-5.17323
-3.66073
-2.55548
-1.49668
-3.45873
-5.00426
-2.3265
-0.11998
0.998291
-0.277001
-0.728732
0.419289
0.281807
-0.0202657
-0.800404
-3.32909
-3.75142
-4.33105
-4.95588
-5.04195
-4.17545
-3.41475
-2.98078
-2.03192
-5.78068
-5.02649
-3.81365
-2.60929
-1.72414
-1.67595
-1.26382
-0.74725
-1.29307
-2.79243
-4.40769
-4.87968
-5.18729
-5.55789
-5.74511
-5.3692
-4.00529
-3.45407
-3.70349
-5.77913
-5.2504
-4.26049
-3.46403
-2.94435
-2.50237
-3.02876
-3.57029
-3.35077
-5.11979
-5.40225
-5.85584
-5.78818
-5.74944
-5.93177
-5.83168
-4.5958
-3.8174
-3.68318
-4.71942
-4.56631
-4.01839
-3.50976
-3.26107
-3.62147
-4.42081
-5.72668
-4.7147
-5.914
-6.58722
-6.9153
-6.2277
-5.36381
-5.36575
-5.02578
-4.37239
-4.31378
-8.98709
-4.05373
-3.91999
-3.61495
-3.32651
-3.26328
-3.83802
-4.60114
-4.93089
-3.87114
-4.21985
-5.33558
-5.82677
-5.38058
-4.52709
-4.19883
-3.60217
-3.40551
-4.69357
8.40194
-3.81881
-3.71608
-3.51674
-3.30465
-3.2331
-3.49273
-3.72282
-3.24258
-2.55727
-2.91746
-3.80717
-4.30049
-4.21739
-3.79387
-3.2843
-2.5493
-1.98563
-2.83673
-2.31023
-3.77969
-3.72513
-3.61529
-3.48459
-3.39944
-3.49205
-3.09312
-1.91579
-1.86589
-2.53426
-3.2333
-3.59418
-3.57984
-3.32655
-2.94554
-2.48787
-2.40515
-3.27371
-3.19399
-3.84405
-3.84102
-3.82057
-3.82183
-3.95093
-4.59019
-4.05868
-1.26772
-1.89315
-2.59139
-3.11187
-3.33073
-3.2729
-3.07776
-2.83527
-2.66561
-3.03289
-3.37846
-3.10589
-3.95775
-3.99971
-4.05609
-4.18552
-4.52618
-5.70758
-6.06751
-2.65815
-2.53593
-2.96996
-3.25316
-3.32363
-3.16331
-2.95692
-2.77028
-2.67689
-2.76796
-2.90959
-2.67452
-4.08669
-4.15691
-4.25522
-4.43057
-4.78583
-5.45913
-5.62885
-4.18806
-3.48168
-3.61473
-3.62823
-3.56622
-3.21713
-2.92915
-2.69567
-2.49516
-2.33995
-2.3194
-2.2794
-4.21363
-4.29416
-4.39951
-4.55169
-4.77707
-5.15097
-5.0742
-4.62925
-4.3245
-4.62668
-4.37171
-3.94958
-3.44222
-3.02948
-2.71839
-2.40385
-2.15949
-2.17161
-2.18412
-4.33275
-4.41099
-4.50513
-4.61601
-4.71573
-4.76453
-4.9214
-4.86558
-5.19696
-5.68318
-5.12608
-4.54027
-3.7802
-3.30274
-2.96773
-2.57943
-2.10437
-2.251
-2.30586
-4.44414
-4.51419
-4.59462
-4.68314
-4.75625
-4.74394
-4.89273
-4.90861
-4.89952
-5.63615
-5.3226
-4.89751
-4.13045
-3.71335
-3.49892
-3.36026
-3.08799
-2.68086
-2.6243
-4.55007
-4.60907
-4.67726
-4.76316
-4.92494
-5.02231
-4.95523
-4.93834
-4.94842
-5.18343
-5.09187
-4.82379
-4.36496
-4.09911
-4.05424
-4.26204
-4.15931
-3.86872
-3.1382
-4.65331
-4.69853
-4.74796
-4.81379
-4.95096
-5.0054
-4.95975
-4.92962
-4.88392
-4.87174
-4.89954
-4.73165
-4.49046
-4.34807
-4.41336
-4.78447
-4.7305
-4.69741
-3.87001
-4.75761
-4.78895
-4.81851
-4.84443
-4.87594
-4.93252
-4.95928
-4.94746
-4.89069
-4.86036
-4.82598
-4.69849
-4.54662
-4.45222
-4.40768
-4.92948
-4.88083
-4.79887
-4.62403
-4.8669
-4.88816
-4.90838
-4.91944
-4.91061
-4.96843
-5.01958
-5.02834
-4.96429
-4.87505
-4.82697
-4.69324
-4.56128
-4.49831
-4.47785
-5.15843
-5.02819
-4.98128
-4.99063
-4.98337
-4.99953
-5.01805
-5.02508
-5.02671
-5.07761
-5.13937
-5.18953
-5.11942
-4.97587
-4.8646
-4.69763
-4.54175
-4.46552
-4.66539
-5.22552
-5.14516
-5.09989
-5.06334
-5.10625
-5.12026
-5.13696
-5.15088
-5.1593
-5.20941
-5.29503
-5.424
-5.33646
-5.09352
-4.92549
-4.71542
-4.50457
-4.25004
-5.03853
-5.25156
-5.26254
-5.29238
-5.34886
-5.23282
-5.24256
-5.24873
-5.25732
-5.28372
-5.34256
-5.45235
-5.6608
-5.54106
-5.19903
-5.0238
-4.77613
-4.56242
-4.50768
-5.19401
-5.32284
-5.4002
-5.51483
-5.5771
-5.36475
-5.37237
-5.37712
-5.39012
-5.42035
-5.47208
-5.5633
-5.75164
-5.66959
-5.45339
-5.24033
-4.91863
-4.62336
-5.35959
-5.41212
-5.46596
-5.54601
-5.77702
-5.7097
-5.50266
-5.51192
-5.5225
-5.5404
-5.56875
-5.60292
-5.63665
-5.65424
-5.74071
-5.81782
-5.68346
-5.33119
-4.67074
-5.57129
-5.58418
-5.62198
-5.6385
-5.68511
-5.60749
-5.64473
-5.6572
-5.67424
-5.69835
-5.72801
-5.75326
-5.75263
-5.62594
-5.87933
-6.30318
-6.24315
-7.10651
-5.8931
-5.8088
-5.79341
-5.80823
-5.79394
-5.71949
-5.59258
508.889
508.537
514.644
527.047
539.623
550.206
562.434
577.657
595.555
615.801
638.044
661.917
687.001
712.887
739.208
764.882
786.062
795.573
809.064
816.68
817.986
834.129
888.646
448.968
448.365
453.99
466.808
480.087
490.762
502.985
518.228
536.214
556.533
578.849
602.795
627.928
653.77
679.806
705.16
727.274
739.956
745.005
763.709
743.089
739.809
819.764
387.972
386.915
390.975
404.632
419.925
430.771
443.022
458.283
476.293
496.696
519.17
543.314
568.624
594.523
620.342
645.047
666.669
681.121
690.108
723.214
675.506
662.076
743.867
326.571
324.55
324.627
339.14
359.557
370.639
382.724
397.879
415.845
436.338
459.05
483.514
509.137
535.241
561.073
585.635
607.368
624.293
638.892
662.691
635.201
621.321
682.034
265.487
261.031
253.544
268.008
299.145
310.582
322.175
337.06
354.886
375.469
398.506
423.419
449.503
475.978
502.041
526.769
549.006
567.73
584.473
602.091
595.135
592.228
637.853
206.498
198.547
184.304
199.911
239.574
250.327
261.209
275.744
293.355
314.054
337.532
363.038
389.752
416.779
443.282
468.429
491.359
511.488
529.578
546.145
552.098
561.402
595.822
152.423
138.683
121.574
140.189
178.935
188.815
199.634
213.782
231.12
252.014
276.102
302.364
329.904
357.672
384.815
410.575
434.297
455.611
474.841
492.006
504.605
520.025
547.845
102.379
84.128
58.8072
73.8257
112.245
125.256
137.214
151.048
168.022
189.251
214.187
241.372
269.965
298.678
326.652
353.176
377.744
400.106
420.402
438.655
454.448
472.483
495.868
365.24
365.742
375.077
363.931
687.636
871.461
656.312
614.965
837.413
970.33
283.157
178.849
177.328
173.401
181.607
254.592
763.078
2659.08
2455.34
324.456
325.33
328.044
325.852
530.488
714.27
533.738
484.322
690.497
366.106
153.771
149.295
150.469
149.325
148.262
158.173
350.921
2212.95
2373.13
322.783
322.994
323.575
324.555
395.788
507.771
368.634
331.365
318.489
162.46
150.577
148.984
148.991
147.454
145.51
144.996
172.163
1371.75
2187.9
322.651
322.785
323.45
317.675
292.372
295.136
172.035
204.785
138.33
150.376
149.325
148.578
148.812
147.605
145.525
144.194
145.067
759.205
1845.25
322.762
322.929
323.267
270.652
189.073
81.7836
13.3675
92.1669
159.582
147.717
148.335
148.457
148.661
147.132
144.818
143.758
141.886
356.711
1391.15
323.092
323.278
299.836
212.59
89.8351
-0.946457
-14.9759
40.7798
146.972
146.629
147.37
148.796
148.324
143.702
142.452
142.6
143.301
186.061
939.564
323.499
310.877
246.72
154.584
32.697
-5.6971
-20.6399
-4.54063
144.117
145.595
146.325
147.367
146.325
142.678
141.919
142.069
143.186
144.513
583.548
317.386
269.69
193
92.4882
2.37254
-7.78331
-11.2614
-5.81778
143.02
143.854
144.378
143.466
143.444
142.34
141.581
141.83
142.668
143.578
345.638
35.4869
18.9726
13.9344
20.4365
34.2872
44.875
55.3087
68.8814
85.1594
107.686
134.279
162.759
192.998
223.224
252.529
280.205
305.885
329.474
351.031
370.754
388.859
406.342
417.081
1.52899
1.42911
1.48896
1.29519
1.17595
1.24408
1.35254
1.46838
2.14134
6.66548
15.8689
35.005
64.6668
98.9016
130.629
160.698
188.146
213.779
236.941
258.617
279.216
299.936
319.469
1.3476
1.25889
1.23925
1.02456
1.03706
1.13222
1.21939
1.27716
1.29558
1.3313
1.39401
1.41081
2.04236
7.87568
21.7177
45.5377
71.5846
98.8594
122.97
146.051
167.804
190.961
215.281
1.14427
1.09802
1.08594
1.01161
1.00082
1.0385
1.08652
1.12695
1.16114
1.19398
1.23018
1.25737
1.27177
1.33424
1.35489
1.44308
3.30863
9.71337
23.4036
37.2122
54.5654
77.7612
107.828
0.964978
0.948652
0.931072
0.909276
0.904357
0.923443
0.953401
0.985435
1.01593
1.04904
1.08373
1.11524
1.14716
1.18791
1.2193
1.25737
1.29756
1.34998
1.40862
1.4244
1.57913
3.04945
11.3181
0.797925
0.790034
0.782032
0.776005
0.778518
0.792734
0.815317
0.842502
0.871556
0.902521
0.936359
0.970552
1.0066
1.04694
1.08721
1.13082
1.17977
1.23013
1.27858
1.32567
1.37785
1.45536
1.53898
0.635713
0.63176
0.629654
0.630618
0.637253
0.650974
0.670892
0.6953
0.723159
0.754211
0.788113
0.82453
0.863488
0.906112
0.950284
0.997995
1.05062
1.10525
1.16146
1.22267
1.28872
1.35533
1.4272
0.474254
0.472421
0.473642
0.478224
0.487248
0.501465
0.520673
0.544233
0.571602
0.602517
0.636826
0.674423
0.715356
0.759835
0.808242
0.860815
0.917621
0.977384
1.03963
1.10494
1.17722
1.24712
1.29474
0.310957
0.3107
0.313951
0.32063
0.331167
0.345987
0.365124
0.38839
0.41558
0.446586
0.481407
0.520121
0.562912
0.610077
0.662009
0.718866
0.780218
0.844584
0.909395
0.970714
1.03008
1.08701
1.11351
0.144128
0.145945
0.150777
0.158797
0.170282
0.185535
0.204695
0.227805
0.254871
0.285939
0.321164
0.36079
0.405144
0.454677
0.509888
0.571012
0.6375
0.707473
0.776128
0.837901
0.880797
0.899657
0.868656
-0.0264486
-0.0217792
-0.015577
-0.006715
0.00526063
0.0206534
0.0396778
0.0625062
0.0892835
0.120188
0.155491
0.195596
0.240998
0.292346
0.350383
0.415608
0.487788
0.565491
0.644435
0.720595
0.781133
0.786574
0.71576
-0.198347
-0.191644
-0.184702
-0.175531
-0.163509
-0.148324
-0.129722
-0.10746
-0.0812983
-0.0509732
-0.0161157
0.0238065
0.0694574
0.121719
0.181664
0.250175
0.327574
0.413363
0.504846
0.596805
0.674289
0.689661
0.6515
-0.368551
-0.363065
-0.356371
-0.347442
-0.335792
-0.321172
-0.303332
-0.282013
-0.256922
-0.227734
-0.194025
-0.155176
-0.11038
-0.0585444
0.00171697
0.0717001
0.152275
0.243865
0.345673
0.453155
0.553991
0.611079
0.636103
-0.540227
-0.536621
-0.53068
-0.522359
-0.511425
-0.497704
-0.480984
-0.461017
-0.437508
-0.410116
-0.378413
-0.341733
-0.299169
-0.249513
-0.191206
-0.122683
-0.0426161
0.0502195
0.156429
0.274049
0.395975
0.507748
0.624845
-0.715897
-0.712964
-0.707735
-0.7002
-0.690226
-0.677695
-0.662437
-0.644243
-0.62285
-0.597961
-0.569187
-0.535877
-0.497125
-0.451753
-0.398243
-0.334995
-0.260493
-0.173027
-0.0708851
0.0463615
0.176568
0.315919
0.491368
-0.894499
-0.891974
-0.887413
-0.880773
-0.871942
-0.860841
-0.847356
-0.83133
-0.812574
-0.790879
-0.765941
-0.737206
-0.703901
-0.665067
-0.619496
-0.565878
-0.502976
-0.429185
-0.342221
-0.239881
-0.119062
0.0253598
0.233783
-1.07541
-1.07332
-1.06945
-1.06378
-1.05623
-1.04676
-1.03531
-1.0218
-1.00614
-0.98823
-0.967919
-0.944844
-0.918501
-0.888334
-0.853727
-0.814092
-0.769162
-0.718596
-0.661265
-0.595676
-0.5176
-0.414719
-0.221479
-1.25839
-1.25669
-1.25352
-1.24888
-1.24271
-1.235
-1.22578
-1.21506
-1.20283
-1.18915
-1.17406
-1.15747
-1.13925
-1.11943
-1.09819
-1.07615
-1.05479
-1.03669
-1.02531
-1.0265
-1.05026
-1.10167
-1.17192
-1.44313
-1.44175
-1.43927
-1.43567
-1.43092
-1.42505
-1.41818
-1.4104
-1.40181
-1.39262
-1.38308
-1.3734
-1.36394
-1.35534
-1.34876
-1.34626
-1.35169
-1.37186
-1.41842
-1.51428
-1.71302
-2.13753
-3.35655
-1.62927
-1.62813
-1.62631
-1.62374
-1.6204
-1.6164
-1.61189
-1.60707
-1.60214
-1.59747
-1.59351
-1.59077
-1.59003
-1.59258
-1.60045
-1.61706
-1.6485
-1.70561
-1.80814
-1.99699
-2.37159
-3.2165
-5.75487
-1.8164
-1.81545
-1.81425
-1.81266
-1.81069
-1.80849
-1.80628
-1.80433
-1.80294
-1.80258
-1.80391
-1.80769
-1.81503
-1.82766
-1.84829
-1.8812
-1.93367
-2.0183
-2.15756
-2.39475
-2.82406
-3.67039
-5.52697
-2.0041
-2.0033
-2.00267
-2.00199
-2.0013
-2.00079
-2.00073
-2.00144
-2.00331
-2.00687
-2.01293
-2.02245
-2.0367
-2.05764
-2.08824
-2.133
-2.19908
-2.29771
-2.44821
-2.68134
-3.04852
-3.62557
-4.4879
-2.19189
-2.19131
-2.19121
-2.19137
-2.19184
-2.19286
-2.19473
-2.19781
-2.20254
-2.2095
-2.21953
-2.23373
-2.25344
-2.28055
-2.3179
-2.36962
-2.44181
-2.54317
-2.68617
-2.88737
-3.16675
-3.54087
-4.00182
-2.37937
-2.3791
-2.3795
-2.38041
-2.38191
-2.38427
-2.3878
-2.39289
-2.4
-2.40974
-2.42291
-2.44064
-2.46422
-2.49539
-2.53655
-2.59106
-2.66349
-2.75971
-2.88651
-3.05081
-3.25733
-3.50253
-3.76273
-2.56637
-2.56641
-2.56723
-2.56878
-2.57116
-2.57465
-2.57956
-2.58627
-2.59525
-2.6071
-2.62262
-2.64277
-2.66875
-2.70204
-2.74452
-2.79871
-2.86774
-2.95508
-3.06382
-3.19555
-3.34868
-3.51491
-3.67467
-2.7529
-2.75309
-2.75419
-2.75624
-2.75934
-2.76374
-2.76973
-2.77768
-2.78803
-2.80136
-2.8184
-2.83999
-2.86712
-2.90097
-2.94294
-2.99481
-3.05858
-3.13606
-3.22816
-3.33416
-3.45066
-3.57002
-3.67881
-2.93855
-2.93898
-2.94012
-2.94257
-2.94623
-2.95133
-2.95812
-2.96694
-2.9782
-2.99242
-3.01024
-3.0324
-3.05969
-3.09298
-3.13326
-3.18169
-3.2395
-3.30754
-3.38567
-3.47241
-3.56446
-3.65627
-3.73957
-3.12336
-3.12365
-3.12496
-3.12764
-3.13169
-3.13728
-3.14462
-3.15397
-3.16571
-3.18031
-3.19832
-3.22033
-3.24699
-3.27896
-3.31686
-3.36138
-3.41326
-3.47284
-3.53969
-3.61226
-3.68803
-3.76346
-3.83403
-3.30724
-3.30714
-3.3086
-3.31139
-3.31566
-3.32153
-3.32916
-3.33875
-3.35061
-3.36517
-3.38288
-3.40422
-3.4297
-3.4598
-3.49493
-3.53547
-3.58181
-3.63407
-3.6918
-3.75381
-3.81833
-3.88339
-3.94689
-3.48992
-3.48947
-3.49092
-3.49379
-3.49813
-3.50409
-3.51179
-3.52136
-3.53305
-3.54721
-3.56424
-3.58453
-3.60845
-3.63635
-3.66851
-3.70515
-3.74644
-3.79238
-3.84261
-3.89633
-3.95247
-4.01002
-4.06823
-3.67106
-3.67038
-3.67187
-3.67478
-3.67912
-3.685
-3.69255
-3.70188
-3.71317
-3.72668
-3.74275
-3.76169
-3.78382
-3.80935
-3.83848
-3.87136
-3.90803
-3.9484
-3.99223
-4.03903
-4.08825
-4.13942
-4.19241
-3.85038
-3.84982
-3.85143
-3.85437
-3.85864
-3.86434
-3.87158
-3.88047
-3.89115
-3.90383
-3.91874
-3.93616
-3.95634
-3.97945
-4.00559
-4.03483
-4.06717
-4.10252
-4.14067
-4.18138
-4.2244
-4.26953
-4.31682
-4.02787
-4.02782
-4.02962
-4.03258
-4.03674
-4.04219
-4.04901
-4.0573
-4.0672
-4.07888
-4.09253
-4.10833
-4.12651
-4.14719
-4.1704
-4.19615
-4.22441
-4.25512
-4.28811
-4.32325
-4.36045
-4.39962
-4.44079
-4.20388
-4.20457
-4.20657
-4.20954
-4.21355
-4.21868
-4.225
-4.23259
-4.24159
-4.25216
-4.26445
-4.2786
-4.29476
-4.31301
-4.33335
-4.35575
-4.38019
-4.4066
-4.43485
-4.46482
-4.49647
-4.52974