/*--------------------------------*- C++ -*----------------------------------*\
| =========                 |                                                 |
| \\      /  F ield         | OpenFOAM: The Open Source CFD Toolbox           |
|  \\    /   O peration     | Version:  v1912                                 |
|   \\  /    A nd           | Website:  www.openfoam.com                      |
|    \\/     M anipulation  |                                                 |
\*---------------------------------------------------------------------------*/
FoamFile
{
    version     2.0;
    format      ascii;
    class       volScalarField;
    location    "0.6";
    object      p_rgh;
}
// * * * * * * * * * * * * * * * * * * * * * * * * * * * * * * * * * * * * * //

dimensions      [1 -1 -2 0 0 0 0];


internalField   nonuniform List<scalar> 
9072
(
525.153
522.745
525.454
534.917
548.399
559.652
570.662
584.405
601.006
620.121
641.41
664.517
689.049
714.582
740.733
767.025
791.053
806.661
811.919
834.485
830.797
826.971
891.537
523.788
521.496
523.898
533.147
547.473
559.046
570.088
583.808
600.48
619.676
641.036
664.217
688.816
714.363
740.376
766.242
790.492
809.708
808.194
832.215
835.731
792.694
863.008
521.772
519.304
520.491
529.041
545.529
557.903
568.964
582.715
599.402
618.646
640.128
663.495
688.291
713.97
739.925
765.36
788.856
807.776
815.457
838.762
847.56
758.458
827.999
520.242
516.571
515.275
520.656
542.088
556.736
567.591
581.218
597.822
617.082
638.733
662.388
687.513
713.463
739.535
764.885
788.272
807.849
822.027
841.85
851.247
771.954
839.034
520.722
513.524
507.639
505.847
536.206
555.921
566.083
579.382
595.769
614.993
636.862
660.919
686.512
712.89
739.263
764.788
788.428
808.981
826.114
843.751
853.844
834.128
864.785
524.314
511.299
501.157
493.85
532.284
555.321
564.214
577.094
593.178
612.33
634.499
659.089
685.309
712.289
739.155
765.088
789.231
810.784
829.661
847.267
860.043
862.007
886.911
530.766
512.531
498.662
490.762
531.63
552.774
561.596
574.185
589.913
608.977
631.595
656.882
683.909
711.684
739.239
765.778
790.593
813.121
833.308
851.642
866.788
878.453
901.056
537.271
518.589
500.696
463.447
519.578
546.466
557.803
570.515
585.858
604.791
628.103
654.263
682.307
711.089
739.535
766.852
792.458
815.924
837.221
856.542
873.51
889.284
910.258
380.788
371.416
386.581
382.723
440.075
898.765
772.893
627.753
687.238
1137.91
532.731
210.466
186.56
186.51
181.456
227.289
349.973
1758.77
2654.87
343.243
325.45
348.134
328.957
355.551
797.108
695.184
556.914
634.155
984.201
179.452
150.555
152.34
164.353
168.795
174.751
197.943
1239.19
2481.51
361.872
323.566
323.53
323.805
394.671
642.937
572.575
447.824
518.949
366.215
153.158
149.642
149.362
148.849
146.655
145.886
143.437
435.336
2237.47
331.501
323.56
323.467
323.8
471.056
511.86
427.522
269.726
539.18
145.906
150.412
148.866
148.912
148.765
146.724
145.153
142.869
228.139
1791.2
324.031
323.641
323.345
487.287
473.444
395.354
300.454
59.0426
538.65
148.578
148.594
148.931
148.878
150.088
147.499
144.527
143.192
233.046
1263.5
324.215
323.67
415.879
569.575
465.534
163.99
-1.74309
0.159299
421.717
147.386
147.238
148.965
151.2
149.232
143.818
143.571
146.035
149.216
711.801
324.363
370.829
650.768
572.151
454.333
44.9687
-3.49839
-9.09873
399.681
146.745
146.295
147.801
150.524
146.77
142.66
142.2
143.161
144.361
294.039
742.996
723.852
660.222
578.259
353.704
23.5343
-4.01364
-0.808039
318.058
145.568
144.362
145.355
147
143.008
142.351
141.99
142.922
143.426
241.272
101.65
403.95
207.39
139.19
403.819
483.781
524.713
557.057
578.925
597.773
622.934
650.379
679.988
710.324
740.233
768.745
795.489
820.101
842.666
863.284
882.14
899.734
917.794
2.14883
2.13466
3.71359
2.04416
1.83591
1.82514
1.92431
2.0377
2.19499
56.3675
201.938
416.825
639.007
709.221
742.742
773.145
802.095
828.603
852.973
875.297
896.34
916.877
937.508
2.07196
2.08901
2.00496
1.88879
1.75549
1.83644
1.93226
2.00601
2.07779
2.06725
2.11283
2.16135
2.23591
75.3131
284.2
609.198
810.696
838.015
863.791
887.182
909.506
931.704
955.692
1.99899
2.00273
1.96725
1.92827
1.8741
1.89471
1.93997
1.98555
2.0216
2.10788
2.08958
2.12696
2.15306
2.18431
2.23948
2.25214
15.7351
110.682
425.369
705.671
883.965
940.743
969.316
1.94941
1.96176
1.94318
1.92297
1.90649
1.91486
1.94069
1.97245
2.00373
2.0354
2.07053
2.10264
2.13498
2.16777
2.21182
2.25452
2.28335
2.32905
2.38953
2.41399
2.48896
2.69585
166.931
1.90928
1.9229
1.91411
1.90665
1.90397
1.91244
1.9314
1.95662
1.98475
2.01517
2.04746
2.08163
2.11703
2.15497
2.19626
2.23637
2.28275
2.33395
2.38428
2.43198
2.47785
2.54506
2.62041
1.87241
1.88715
1.88395
1.88306
1.88645
1.89658
1.91361
1.93597
1.96221
1.99167
2.02416
2.05936
2.09714
2.13737
2.18184
2.22684
2.27715
2.33113
2.38677
2.44553
2.50903
2.57549
2.64406
1.83521
1.85163
1.85123
1.85401
1.86064
1.87223
1.88901
1.91048
1.93599
1.96515
1.99778
2.03374
2.07299
2.11566
2.16193
2.21252
2.26728
2.32572
2.3867
2.45044
2.51807
2.59396
2.6514
1.79516
1.81423
1.81565
1.82058
1.8291
1.84175
1.85875
1.87998
1.90523
1.93433
1.96724
2.00399
2.04471
2.08965
2.13914
2.19355
2.25277
2.31588
2.38088
2.44443
2.50353
3.30259
3.38652
1.75109
1.77369
1.77691
1.7833
1.793
1.80634
1.82354
1.84467
1.86976
1.89881
1.93193
1.96933
2.01127
2.05815
2.11046
2.16864
2.23258
2.30115
2.37142
2.43677
2.49227
2.93334
3.36612
1.70415
1.72998
1.73517
1.7426
1.75297
1.76663
1.78381
1.80472
1.8295
1.85832
1.89138
1.92903
1.97171
2.01999
2.0746
2.1362
2.205
2.2802
2.35945
2.43668
2.50997
2.54625
2.88426
1.6579
1.6845
1.69092
1.69885
1.70941
1.72298
1.73984
1.76024
1.78442
1.81263
1.84517
1.88248
1.92517
1.974
2.02997
2.09412
2.16708
2.2488
2.33807
2.43033
2.51891
2.57373
2.99737
1.61235
1.63848
1.64453
1.65227
1.66253
1.67563
1.69183
1.71138
1.73454
1.76164
1.79302
1.82921
1.87092
1.91908
1.97494
2.03993
2.11513
2.20118
2.29818
2.40372
2.51009
2.59671
2.62219
1.56386
1.5908
1.59574
1.60286
1.61247
1.62477
1.63996
1.65827
1.67997
1.70538
1.73486
1.76895
1.80845
1.85438
1.90815
1.97139
2.04552
2.13184
2.23138
2.34384
2.46477
2.58407
2.68989
1.51198
1.54009
1.54424
1.55062
1.55937
1.5706
1.58447
1.60117
1.62093
1.64403
1.6708
1.70174
1.73765
1.77954
1.82877
1.88696
1.95564
2.03639
2.13103
2.2408
2.36503
2.49973
2.65038
1.45753
1.48656
1.49013
1.49572
1.50345
1.51341
1.52568
1.54042
1.55778
1.57798
1.60124
1.628
1.65891
1.69484
1.73688
1.78632
1.84442
1.91251
1.9926
2.08697
2.19804
2.3295
2.4966
1.40084
1.43067
1.43367
1.43843
1.44504
1.45354
1.464
1.47646
1.49104
1.50781
1.52689
1.54853
1.57317
1.60135
1.63366
1.67072
1.71299
1.76065
1.81441
1.87567
1.94645
2.03505
2.16486
1.34223
1.37274
1.3752
1.37909
1.38449
1.39144
1.3999
1.40987
1.42135
1.43431
1.44869
1.46452
1.48191
1.50094
1.52151
1.54327
1.56524
1.58533
1.60058
1.60671
1.59546
1.55898
1.48267
1.28203
1.3131
1.31504
1.31806
1.32224
1.32756
1.33394
1.34128
1.34948
1.3584
1.3678
1.37744
1.38706
1.3962
1.40397
1.40886
1.40803
1.39631
1.36487
1.2977
1.16049
0.872639
0.162797
1.22061
1.2521
1.25357
1.25575
1.25871
1.2624
1.26668
1.27136
1.27627
1.28112
1.28549
1.28892
1.29078
1.29008
1.28519
1.27351
1.25048
1.20796
1.13148
0.993174
0.730658
0.177393
-1.19475
1.15836
1.19012
1.19119
1.19256
1.19435
1.19646
1.1987
1.20081
1.20253
1.20347
1.20307
1.20062
1.19524
1.18553
1.1693
1.14321
1.1017
1.03519
0.926963
0.746261
0.430562
-0.165314
-1.40196
1.09576
1.12758
1.12827
1.12891
1.12961
1.13024
1.13057
1.13028
1.12904
1.12642
1.12172
1.11406
1.10237
1.08507
1.05976
1.02277
0.968477
0.887759
0.766258
0.579446
0.287386
-0.174579
-0.887684
1.03328
1.06491
1.06523
1.06518
1.06489
1.06418
1.06278
1.06035
1.05651
1.05075
1.04238
1.03041
1.01365
0.990526
0.958741
0.914795
0.85376
0.768287
0.647906
0.478165
0.240411
-0.085217
-0.507162
0.971257
1.00248
1.00241
1.00175
1.00057
0.998677
0.995777
0.99152
0.985485
0.977147
0.965799
0.950501
0.930038
0.90291
0.867103
0.819758
0.756945
0.673423
0.562796
0.418056
0.232921
0.00565108
-0.25185
0.909845
0.940577
0.94013
0.938919
0.936983
0.934084
0.929937
0.924174
0.916397
0.906066
0.892485
0.874784
0.851884
0.822459
0.784843
0.736862
0.675679
0.597921
0.500208
0.380032
0.237073
0.0757526
-0.0904733
0.849258
0.879417
0.878622
0.876954
0.874385
0.870668
0.865517
0.858596
0.84951
0.837749
0.82266
0.803462
0.779237
0.748908
0.711192
0.664511
0.606946
0.53651
0.451753
0.352477
0.240572
0.121352
0.00527107
0.789404
0.819089
0.81806
0.816045
0.81299
0.808636
0.802727
0.794969
0.78499
0.772322
0.756385
0.736494
0.711878
0.681698
0.645042
0.600845
0.547872
0.485009
0.411825
0.329102
0.239171
0.146381
0.057671
0.730438
0.759639
0.758471
0.756309
0.752935
0.748135
0.741701
0.7334
0.72291
0.709801
0.693567
0.673637
0.649382
0.620144
0.585292
0.544174
0.496057
0.440332
0.376992
0.307024
0.232479
0.156376
0.0827819
0.672557
0.701164
0.700073
0.697823
0.69428
0.689228
0.682496
0.673918
0.663241
0.650089
0.634017
0.614552
0.5912
0.563469
0.530906
0.493118
0.44972
0.40041
0.345305
0.285244
0.221743
0.156693
0.0921716
0.616
0.643928
0.642938
0.640651
0.637043
0.631909
0.625097
0.616485
0.605892
0.593014
0.57747
0.558861
0.536796
0.510925
0.480932
0.446554
0.407598
0.363968
0.315809
0.263709
0.208645
0.15169
0.0937483
0.561012
0.588003
0.587139
0.584854
0.58124
0.576147
0.569442
0.561019
0.55074
0.538376
0.523629
0.506166
0.485663
0.46186
0.434549
0.403559
0.368786
0.330243
0.288098
0.242714
0.194631
0.144399
0.0923376
0.507724
0.533607
0.532774
0.530465
0.526872
0.5219
0.515441
0.507391
0.497629
0.485977
0.472215
0.456084
0.437309
0.41568
0.391067
0.363384
0.332585
0.298717
0.261942
0.222482
0.180586
0.136496
0.0903102
0.455993
0.480834
0.479828
0.477446
0.473893
0.4691
0.462977
0.455435
0.446357
0.435586
0.422948
0.40825
0.391279
0.37186
0.349918
0.325441
0.298429
0.268925
0.23706
0.202983
0.166801
0.128606
0.0884482
0.405408
0.429479
0.428145
0.425667
0.422185
0.417624
0.411908
0.404965
0.396688
0.386923
0.37551
0.362309
0.347171
0.329973
0.310672
0.289295
0.265871
0.240433
0.213088
0.183969
0.153151
0.120683
0.0866378
0.35548
0.379156
0.377457
0.374928
0.37158
0.36732
0.36208
0.355801
0.348389
0.339698
0.329579
0.317921
0.304638
0.289666
0.272975
0.254586
0.234538
0.212875
0.189696
0.165148
0.139343
0.112341
0.0842493
0.305861
0.329409
0.327508
0.325026
0.321899
0.318027
0.313336
0.30777
0.301255
0.293666
0.284872
0.27479
0.263384
0.250623
0.236476
0.220944
0.204068
0.185919
0.166603
0.146269
0.125061
0.103081
0.0804681
0.256439
0.279976
0.278094
0.275779
0.272972
0.269573
0.265499
0.260691
0.255092
0.248613
0.241156
0.232668
0.223132
0.212528
0.200821
0.187999
0.174109
0.159244
0.143515
0.127051
0.109987
0.0924471
0.074585
0.207202
0.230796
0.229107
0.227067
0.224661
0.221802
0.2184
0.214387
0.209722
0.204362
0.19825
0.19135
0.183639
0.175096
0.165696
0.155435
0.144358
0.132556
0.120136
0.107196
0.0938339
0.0801552
0.0662917
0.158166
0.181866
0.180468
0.178783
0.176836
0.174562
0.171869
0.168679
0.164967
0.160738
0.155973
0.150632
0.144674
0.138078
0.13085
0.123004
0.114572
0.105624
0.0962466
0.0865028
0.0764343
0.0661033
0.0555956
0.109322
0.133181
0.132123
0.130843
0.129391
0.127723
0.125756
0.123411
0.120674
0.117584
0.114148
0.110315
0.106031
0.101286
0.0961133
0.090546
0.0845988
0.0783068
0.0717183
0.0648593
0.0577182
0.0502707
0.0425229
0.0606025
0.0846789
0.0839838
0.083143
0.0822072
0.08115
0.0799108
0.0784237
0.0766784
0.074727
0.0725816
0.0701933
0.0675156
0.0645496
0.0613338
0.0579078
0.0542806
0.0504472
0.0464133
0.0421347
0.0376329
0.0326755
0.0271338
0.012027
0.0362652
0.0359541
0.0355838
0.0351782
0.0347293
0.0342065
0.0335761
0.0328316
0.0320043
0.0311022
0.0300997
0.0289717
0.0277246
0.0263841
0.0249699
0.0234871
0.0219224
0.0202809
0.0185765
0.0164245
0.0136338
0.009882
898.871
911.387
906.796
882.85
950.535
953.006
951.466
941.243
975.943
983.852
986.219
979.836
999.551
1016.1
1025.93
1024.53
658.459
944.772
1091.01
1091.1
2.681
2.72956
4.18563
900.26
2.71124
2.76526
2.79586
3.32521
2.69777
2.73848
2.81
2.84747
2.8743
2.65065
2.73176
2.85412
3.05298
2.53564
2.64734
2.84016
2.72808
2.52002
2.6348
2.80257
2.5975
2.69626
2.7758
2.95274
3.37812
3.47993
3.63359
3.79324
2.82632
2.95982
3.07093
3.22367
2.82974
2.95233
3.09952
3.26476
2.72047
2.87702
3.05847
3.2538
2.41393
2.62313
2.8979
3.18322
1.51716
1.72753
3.3399
3.01771
-0.970389
23.3438
28.4526
29.8307
-4.26036
23.2707
24.2994
26.4076
-3.63892
-4.57759
-1.07973
-3.15132
-1.75371
-2.27153
-2.64947
-2.80785
-0.921978
-1.12795
-1.28401
-1.38677
-0.467841
-0.564479
-0.634778
-0.672064
-0.216738
-0.268643
-0.304115
-0.320073
-0.0790554
-0.113239
-0.137125
-0.149003
-0.00790079
-0.0363665
-0.0590127
-0.074854
0.0252205
-0.00236157
-0.0273459
-0.049331
0.0384685
0.0106215
-0.0166386
-0.0433075
0.0432124
0.0156718
-0.0123543
-0.0409497
0.0456809
0.019637
-0.00737173
-0.0354072
0.0484431
0.0249167
0.000452657
-0.0250729
0.0519844
0.0315725
0.0105853
-0.0111705
0.055928
0.038905
0.0217437
0.00431679
0.0592185
0.0455673
0.0321519
0.0189062
0.0606112
0.0499401
0.0396737
0.0298261
0.0590841
0.0508087
0.042866
0.0353409
0.0542791
0.0478657
0.0416801
0.0357594
0.0464195
0.0415009
0.0367949
0.0323522
0.0355761
0.0317635
0.0280578
0.0245289
0.0217508
0.0186019
0.0153356
0.0119813
0.00558553
0.00277391
-0.000421338
-0.00403984
810.732
763.598
675.2
565.489
30.4677
-4.87025
-3.8996
87.6482
250.375
143.347
143.425
141.576
141.636
145.062
142.322
142.197
143.337
143.492
312.942
911.432
818.743
691.568
48.3589
-6.06221
-7.25529
-6.74992
298.499
140.916
141.764
143.246
141.754
141.845
145.691
143.495
143.526
143.649
143.673
599.605
954.739
845.22
-0.463436
-3.38495
-5.64788
-9.37112
-9.11147
364.938
128.691
138.624
144.4
142.608
142.163
142.503
149.185
144.072
143.683
143.843
818.126
1003.02
175.203
-1.39472
-2.03326
-5.44495
-14.3414
114.143
172.039
102.902
140.01
291.442
143.694
142.168
142.576
148.642
144.299
143.837
143.903
1035.33
1075.86
0.172786
-0.376995
-0.403592
-2.2344
-5.40481
-30.9573
-18.0821
58.3454
1072.31
1129.26
149.908
141.821
142.337
142.617
145.877
143.769
143.724
1169.1
1086.71
0.574254
0.393641
1.28996
1.32956
0.701351
4.33081
-0.29451
625
1139.62
1240.87
331.786
141.704
142.099
142.771
147.274
143.641
200.867
1306.3
495.481
63.4106
1.44662
2.2881
3.07559
3.55229
5.50601
7.20955
351.283
1283.28
1365.12
463.64
141.765
142.072
142.444
145.342
143.469
212.127
1450.35
95.9843
669.433
4.18848
32.9186
13.4747
4.36312
5.53911
6.23477
908.312
534.759
1467.6
291.222
141.785
142.166
142.474
151.961
145.738
496.972
1586.87
3.04158
565.139
379.633
3.51741
16.9876
5.58136
6.27343
86.1454
1022.84
34.3508
1425.88
163.955
142.243
142.229
142.826
153.838
144.567
255.249
1698.97
3.03845
3.38797
640.432
280.523
38.0167
6.8357
127.293
795.115
37.7876
11.7394
343.322
440.569
141.565
142.633
143.085
145.913
144.352
145.546
1212.03
3.04851
3.24132
3.70021
255.124
432.689
459.593
379.199
13.4466
10.568
11.7153
101.824
1292.59
141.674
141.622
373.105
1186.49
612.799
471.968
1043.03
3.24241
3.68555
4.22578
4.25107
4.81566
5.22244
6.77557
8.3601
9.9002
11.3263
12.1296
811.222
503.968
141.004
1496.69
1624.17
211.616
227
1859.76
3.70555
3.83712
4.07271
4.44191
4.91466
5.54826
6.54643
7.82753
9.22202
11.0414
12.7333
18.0439
1021.37
1226.93
458.079
1973.43
247.857
2121.23
2189.27
3.47067
3.8491
4.19774
4.58401
5.0445
5.57399
6.1859
7.62998
11.3525
11.2695
393.831
1316.92
1483.56
962.446
798.068
2038.15
862.238
2208.73
2329.33
3.50158
3.90049
4.28829
4.69695
5.12176
5.49356
5.71228
5.75147
4.06585
630.848
1360.78
2295.07
2398.86
2393.57
2332.05
1845.18
2320.26
2454.15
2474.71
3.51909
3.95161
4.3549
4.76104
5.1607
5.38915
5.19411
4.96692
0.644878
0.801732
1.4733
265.547
2404.86
2431.68
2245.33
1964.03
2493.78
2608.33
2604.7
3.5255
3.99963
4.40047
4.7763
5.19527
5.30228
4.80825
3.36296
1.66357
1.66277
1.96485
2.59663
971.648
2502.15
2518.52
2512.85
2117.75
1656.29
1616.8
3.51685
4.0544
4.44327
4.80906
5.8676
5.23026
4.55579
3.63906
2.92033
2.7168
11.8587
0.852303
-0.162274
1076
2260.67
371.979
1.75283
98.6339
1452.48
31.8121
7.41909
4.51817
5.59113
19.191
19.2995
4.15388
3.57125
3.17809
6.22461
9.1164
-0.0967839
-0.832004
-1.90993
-2.41412
-0.897308
1.94989
22.9434
135.886
26.0256
29.688
30.5859
16.7462
4.38381
16.0802
15.8217
3.16729
2.86112
14.256
-0.410804
-0.599928
-1.44681
-2.0716
-2.15658
-1.28379
-0.455151
0.213356
4.76511
-2.77031
-2.0111
9.03458
16.9812
16.0215
1.74422
15.8802
2.67995
1.73299
12.9123
-1.32775
-1.67128
-2.1615
-2.54774
-2.73057
-1.91044
-0.943936
-0.39816
0.736794
-2.63071
-2.08066
-1.11898
-0.330687
11.5368
1.17462
15.5752
6.82818
-0.170743
11.1633
-1.69556
2.05951
2.12265
-2.09161
-2.76599
-0.602033
0.883915
-0.509655
5.02787
-1.45377
-1.29029
-0.641352
-0.238659
-0.0040109
0.573848
1.21692
13.2008
-1.32797
-2.52644
-1.76836
-0.551177
-2.96149
4.4716
3.07769
4.80034
0.307622
1.58867
458.36
-0.67209
-0.538353
-0.196638
0.0551358
0.192192
0.635166
-1.21857
-0.708097
-0.40731
-0.829895
-1.9511
-2.44014
-1.99536
-1.14544
6.14934
6.746
0.449454
301.123
612.025
-0.31198
-0.20924
-0.00990413
0.202187
0.404827
3.55515
-0.214793
0.265841
0.951434
0.589584
-0.300273
-0.793627
-0.710544
-0.287035
0.32999
0.957564
32.5552
23.8705
7.89398
-0.147662
-0.0930998
0.0167437
0.14744
0.918809
4.16089
0.543428
1.71643
1.7662
1.09779
0.398732
0.0378513
0.052195
0.305481
0.68656
1.1444
55.34
0.768712
28.3864
-0.0868289
-0.0837929
-0.0633414
-0.0646063
0.307576
4.13339
3.25913
3.06536
1.86535
1.16584
0.645357
0.426491
0.484321
0.679461
0.922267
1.09172
23.8128
1.3324
0.7023
-0.075326
-0.11729
-0.17367
-0.303104
-0.643763
-1.77051
84.3276
87.8147
12.0218
0.944983
0.629953
0.558807
0.719112
0.925496
1.11214
1.20553
2.23311
1.05166
1.25719
-0.0790701
-0.14929
-0.2476
-0.422959
-0.77821
-1.45091
75.3332
89.2022
5.87993
8.84903
8.03931
0.44362
0.790521
1.07847
1.31195
1.51245
1.76773
1.73455
1.77463
-0.0808202
-0.161353
-0.266698
-0.418879
-0.644264
1.93172
-0.685752
90.4687
5.68171
5.2288
9.47456
0.883508
0.691105
1.10334
1.41442
1.72896
1.98833
2.00298
2.00007
-0.0747412
-0.152987
-0.247121
-0.358007
-0.457721
-0.0414176
0.586513
4.27332
73.6165
4.60645
9.1946
4.16304
0.478235
0.955272
1.29028
2.7509
2.52221
2.10769
2.01444
-0.0609413
-0.130992
-0.211416
-0.299938
-0.373052
4.93614
4.66683
-0.518235
22.7661
6.20461
5.38298
-0.257743
0.252987
0.669873
0.88465
4.28954
96.6714
25.0614
1.85963
-0.0416735
-0.100676
-0.168857
-0.254759
1.54488
4.8873
-0.431162
-0.400357
-0.437742
9.52939
-0.259785
-0.314812
0.143457
0.409304
0.455041
18.6102
94.8006
91.3595
1.62719
-0.0197199
-0.0649362
-0.113853
-0.178282
-0.317207
-0.37028
-0.313439
-0.223669
-0.249947
7.62979
-0.253457
-0.0980289
0.143149
0.285578
1.86544
101.615
-0.0925819
-0.063799
25.816
0.00118069
-0.0301587
-0.0597028
-0.0856236
0.0401324
-0.0313262
-0.199961
-0.188587
-0.131851
3.91145
-0.0671916
0.0603015
0.212181
0.689708
1.44383
101.096
-0.120573
-0.0400811
75.6387
0.0170727
-0.00418564
-0.0243947
-0.01991
0.200802
-0.0844468
-0.135059
-0.143648
-0.0802673
5.13579
0.0570042
0.190734
0.324729
0.525193
0.798991
19.6008
-0.1439
-0.0972935
-0.106635
0.0257928
0.00964073
0.410525
0.13206
-0.0175312
-0.0684371
-0.128155
-0.179176
-0.110212
5.28914
0.144569
0.311543
0.468789
0.547498
92.8808
1.04313
-0.135937
-0.0907115
13.0245
0.0281158
0.0915688
0.548091
-0.0145321
-0.0248413
-0.0750482
-0.160663
-0.289633
0.347386
1.33959
0.208873
0.418949
0.629855
1.54064
94.0111
-0.103694
-0.128173
-0.157985
78.3959
0.0267363
0.0170552
0.0108832
0.00258689
-0.0241463
-0.0830035
-0.192792
-0.401234
3.41196
2.79286
0.235759
0.483487
0.709393
80.9885
0.217719
-0.0632556
-0.14059
-0.255264
29.9502
0.0200046
0.0123878
0.00814977
-0.00534248
-0.0355963
-0.0873308
-0.178544
-0.351707
3.42145
6.85269
0.144456
0.470039
19.0206
24.3525
-0.0273605
-0.0812045
-0.161255
-0.391148
-0.324913
0.0072923
-0.00197272
-0.0125506
-0.0304538
-0.0588029
-0.09297
-0.126702
0.00308782
0.150121
4.16017
-0.172226
0.606996
68.0576
1.36864
-0.0742348
-0.112034
-0.128549
-0.175051
0.0361565
-0.00958264
-0.0220574
-0.0390921
-0.0632082
-0.0928662
-0.118115
-0.117488
0.0168534
1.58833
-0.140278
-0.58049
16.9265
-0.25796
-0.173657
-0.158269
-0.173082
-0.158794
-0.0843442
0.0425608
523.603
523.252
529.359
541.762
554.338
564.921
577.149
592.372
610.27
630.515
652.759
676.632
701.716
727.602
753.922
779.597
800.685
808.834
823.776
831.32
832.479
848.822
903.36
522.541
521.938
527.563
540.381
553.66
564.335
576.558
591.802
609.787
630.106
652.422
676.368
701.501
727.343
753.38
778.733
800.848
811.268
817.947
837.276
816.367
809.974
893.335
520.404
519.347
523.407
537.064
552.357
563.203
575.454
590.715
608.725
629.128
651.602
675.746
701.056
726.955
752.774
777.479
799.101
813.553
822.54
855.645
793.044
773.504
876.296
517.861
515.841
515.918
530.431
550.847
561.93
574.015
589.17
607.136
627.629
650.34
674.805
700.427
726.531
752.364
776.926
798.659
815.584
830.182
853.981
796.207
784.24
873.323
515.636
511.181
503.694
518.158
549.294
560.732
572.325
587.209
605.035
625.619
648.655
673.568
699.653
726.128
752.19
776.919
799.156
817.88
834.623
852.241
845.283
842.378
888.002
515.506
507.556
493.313
508.919
548.583
559.335
570.218
584.753
602.364
623.063
646.541
672.046
698.761
725.787
752.29
777.438
800.367
820.497
838.586
855.154
861.107
870.411
904.83
520.29
506.55
489.441
508.055
546.802
556.682
567.501
581.649
598.987
619.881
643.969
670.231
697.771
725.54
752.682
778.442
802.164
823.478
842.708
859.873
872.473
887.892
915.711
529.104
510.852
485.416
481.251
538.968
551.982
563.939
577.774
594.748
615.977
640.912
668.098
696.691
725.404
753.378
779.901
804.47
826.832
847.128
865.38
881.173
899.208
922.592
376.435
379.125
388.825
377.681
701.615
885.816
670.459
629.107
852.096
984.574
292.513
188.783
187.264
183.241
192.233
266.017
772.439
2668.47
2461.12
324.556
336.381
348.807
326.014
592.549
787.678
607.15
557.741
763.916
405.623
153.886
149.458
158.768
167.489
170.047
179.881
397.171
2283.91
2433.7
322.916
323.127
323.708
324.699
527.161
639.871
494.485
461.33
449.947
162.781
150.742
149.318
149.33
147.779
145.845
145.548
174.147
1484.81
2315.99
322.844
322.977
323.646
420.293
482.925
485.918
359.557
350.722
303.02
150.638
149.543
148.795
149.029
147.83
145.778
144.757
145.699
945.097
2031.3
323.017
323.183
324.008
520.184
438.71
329.754
190.495
250.591
196.704
148.177
149.025
148.757
149.247
148.947
145.735
144.119
142.279
549.338
1638.92
323.42
323.714
592.212
521.473
398.594
20.0005
4.88685
65.9007
152.437
147.141
147.922
150.167
151.019
145.603
143.43
143.715
146.145
197.01
1245.63
323.869
631.912
614.531
522.36
275.218
0.845423
37.126
196.514
147.209
146.362
146.889
149.138
149.531
143.051
142.289
142.444
145.412
146.526
947.891
630.114
696.411
619.695
519.059
48.9606
-2.80113
96.802
252.264
143.755
144.824
144.967
147.006
147.044
142.77
142.01
142.26
144.769
144.017
768.109
463.399
321.772
91.0822
296.734
457.155
504.589
542.426
569.068
587.328
609.855
636.448
664.927
695.167
725.392
754.697
782.373
808.053
831.642
853.2
872.923
891.027
908.51
919.249
2.15647
3.23156
2.11632
1.92255
1.80332
1.87145
1.97991
2.09604
19.9161
114.543
305.633
527.77
692.03
726.265
757.992
788.061
815.509
841.142
864.305
885.98
906.579
927.3
946.832
2.10604
2.028
1.99181
1.77712
1.78961
1.88478
1.97194
2.05484
2.07614
2.08411
2.14683
2.16574
21.486
166.135
448.969
763.998
824.142
851.417
875.527
898.608
920.362
943.518
967.838
2.02209
1.97965
1.96369
1.88936
1.87857
1.91625
1.96427
2.00471
2.04727
2.08445
2.10938
2.13948
2.15911
2.21665
2.23535
2.3212
60.4608
243.532
544.563
839.993
910.902
955.499
985.575
1.96793
1.9516
1.93402
1.91222
1.9073
1.92639
1.95635
1.98838
2.01888
2.05199
2.08675
2.11873
2.15043
2.19086
2.23408
2.27548
2.30057
2.353
2.41164
2.42744
2.5824
60.9286
374.161
1.92607
1.91818
1.91018
1.90415
1.90666
1.92088
1.94346
1.97065
1.9997
2.03087
2.06467
2.09875
2.13667
2.17509
2.21552
2.25907
2.30793
2.35917
2.40801
2.4541
2.50608
2.5836
2.66712
1.88905
1.8851
1.88299
1.88396
1.89059
1.90431
1.92423
1.94864
1.9765
2.00755
2.04146
2.07788
2.11683
2.15946
2.20364
2.25134
2.30396
2.35859
2.41568
2.47656
2.54206
2.60867
2.68054
1.85278
1.85095
1.85217
1.85675
1.86577
1.87999
1.8992
1.92276
1.95013
1.98104
2.01536
2.05295
2.09388
2.13836
2.18678
2.23935
2.29615
2.35591
2.41815
2.48347
2.55575
2.62622
2.67329
1.81468
1.81442
1.81767
1.82435
1.83489
1.84971
1.86884
1.89211
1.9193
1.95031
1.98513
2.02384
2.06663
2.1138
2.16573
2.22259
2.28394
2.34831
2.41312
2.47444
2.68427
3.36882
3.30583
1.77304
1.77486
1.77969
1.78771
1.7992
1.81445
1.83361
1.85672
1.88379
1.91486
1.95008
1.98971
2.03406
2.08359
2.1388
2.19993
2.26642
2.33639
2.40504
2.46682
2.6231
3.14753
3.3395
1.72766
1.73233
1.73853
1.7474
1.75937
1.77476
1.79379
1.81662
1.84339
1.8743
1.9096
1.94971
1.99511
2.04646
2.10449
2.16972
2.2419
2.3196
2.39855
2.47471
2.53525
2.54113
3.36154
1.68096
1.68766
1.6946
1.70378
1.7158
1.73098
1.74958
1.77185
1.79801
1.82833
1.86319
1.90311
1.94876
2.00103
2.06097
2.12948
2.20688
2.29267
2.38415
2.47611
2.55361
2.62551
2.94998
1.63595
1.64144
1.64813
1.65706
1.66871
1.68333
1.70117
1.72249
1.74758
1.77677
1.81048
1.84933
1.89412
1.94596
2.00622
2.0762
2.15678
2.24837
2.35018
2.45766
2.5585
2.61577
2.98764
1.58947
1.59308
1.59902
1.60734
1.61827
1.63199
1.64871
1.66868
1.69219
1.71958
1.75128
1.78796
1.83053
1.88018
1.93849
2.00701
2.08708
2.17992
2.28613
2.40375
2.52567
2.63745
2.75483
1.539
1.54193
1.54716
1.55469
1.56467
1.5772
1.59246
1.61065
1.63204
1.65693
1.6857
1.71902
1.75777
1.80314
1.85665
1.9199
1.9944
2.08187
2.18401
2.30125
2.43146
2.57081
2.74626
1.48559
1.48811
1.49267
1.49931
1.50815
1.51925
1.53273
1.54876
1.56751
1.58921
1.61415
1.64288
1.67619
1.71502
1.76059
1.81421
1.87711
1.9509
2.03787
2.14021
2.26103
2.40545
2.61387
1.42988
1.43196
1.43583
1.4415
1.44905
1.45852
1.46997
1.48348
1.49915
1.51705
1.53736
1.56044
1.58678
1.61695
1.65156
1.69119
1.73612
1.78669
1.84402
1.90961
1.98768
2.09056
2.2838
1.37208
1.37378
1.37696
1.3816
1.38777
1.39548
1.4047
1.41542
1.42765
1.44132
1.45641
1.47301
1.49122
1.51105
1.53228
1.55433
1.57568
1.59378
1.60517
1.60398
1.58022
1.5288
1.45856
1.31254
1.31392
1.3164
1.32
1.32476
1.33062
1.33749
1.34528
1.35386
1.36305
1.3726
1.38227
1.39174
1.40033
1.40691
1.40942
1.40398
1.38381
1.33725
1.24139
1.04265
0.618418
-0.57416
1.2516
1.25274
1.25456
1.25713
1.26047
1.26447
1.26898
1.2738
1.27872
1.28339
1.28735
1.2901
1.29084
1.28829
1.28042
1.26381
1.23237
1.17526
1.07273
0.883875
0.509277
-0.335139
-2.7831
1.18966
1.19061
1.19182
1.19341
1.19538
1.19758
1.19979
1.20174
1.20313
1.20348
1.20215
1.19837
1.19104
1.1784
1.15777
1.12486
1.07239
0.98776
0.848501
0.611311
0.182008
-0.664315
-2.52004
1.12715
1.12795
1.12858
1.12926
1.12994
1.13046
1.13052
1.12981
1.12794
1.12438
1.11832
1.1088
1.09455
1.07361
1.04301
0.998254
0.932171
0.833541
0.683042
0.44991
0.0827275
-0.494321
-1.35663
1.06456
1.06513
1.06523
1.06507
1.0646
1.06358
1.06172
1.05864
1.05391
1.04695
1.03691
1.02271
1.00301
0.975889
0.93854
0.886823
0.814637
0.713273
0.570271
0.369079
0.0896918
-0.284427
-0.74538
1.00227
1.00254
1.00214
1.00123
0.999731
0.997372
0.993843
0.988754
0.981642
0.971901
0.958726
0.940998
0.91742
0.886247
0.845089
0.790581
0.71815
0.621931
0.49513
0.330829
0.124312
-0.120895
-0.381092
0.940464
0.940424
0.939601
0.938055
0.935672
0.932182
0.927279
0.920567
0.91159
0.899731
0.884214
0.864061
0.838081
0.804796
0.762312
0.708123
0.63909
0.55175
0.443018
0.311281
0.158153
-0.00807605
-0.167835
0.87913
0.878945
0.877838
0.875795
0.872687
0.868291
0.862301
0.854352
0.844001
0.830666
0.813628
0.792042
0.76491
0.731064
0.689086
0.637219
0.573447
0.495973
0.403873
0.297869
0.181371
0.0620094
-0.046778
0.818676
0.818249
0.817107
0.814659
0.810992
0.805893
0.799101
0.790284
0.779025
0.764802
0.746981
0.724828
0.697538
0.664242
0.623962
0.575533
0.517727
0.44969
0.371551
0.284819
0.192769
0.100959
0.0176518
0.759057
0.758767
0.757459
0.754779
0.750728
0.745135
0.737802
0.728454
0.716713
0.702109
0.684102
0.662091
0.635426
0.603458
0.565562
0.521036
0.469165
0.409578
0.342731
0.270157
0.194395
0.118961
0.0483889
0.700372
0.700471
0.69902
0.696221
0.691954
0.686081
0.678451
0.668864
0.657001
0.642447
0.624739
0.603393
0.577912
0.547817
0.512689
0.472143
0.42581
0.373547
0.315811
0.25381
0.189287
0.124226
0.0607296
0.642889
0.643342
0.641893
0.639026
0.634678
0.62872
0.621024
0.611452
0.599762
0.585599
0.568573
0.548284
0.524356
0.496461
0.464305
0.427658
0.386366
0.340429
0.290196
0.236479
0.180342
0.122795
0.0645766
0.586943
0.587626
0.586132
0.583223
0.578888
0.573002
0.565452
0.556124
0.544836
0.531322
0.515259
0.496311
0.474188
0.448656
0.419524
0.386648
0.349979
0.309603
0.265779
0.218972
0.169757
0.11859
0.0656009
0.532817
0.533381
0.531767
0.528834
0.524565
0.518863
0.511622
0.502734
0.492052
0.479374
0.464464
0.447042
0.426861
0.403753
0.377614
0.348374
0.316026
0.280681
0.242533
0.201821
0.158803
0.113669
0.0663807
0.480522
0.480573
0.478773
0.475819
0.471657
0.46621
0.45939
0.451097
0.441194
0.429512
0.41587
0.400062
0.381883
0.361206
0.337997
0.312251
0.283982
0.253278
0.22029
0.185148
0.147949
0.108775
0.067611
0.429713
0.429021
0.427019
0.424056
0.420044
0.414915
0.408595
0.401003
0.392003
0.381432
0.369143
0.354992
0.338835
0.320585
0.300242
0.277839
0.2534
0.226991
0.198745
0.168768
0.137121
0.103853
0.0690566
0.379844
0.378431
0.376283
0.373363
0.369569
0.364825
0.359075
0.352245
0.344214
0.334825
0.323948
0.311487
0.297366
0.281535
0.263991
0.244768
0.223904
0.201466
0.177585
0.152399
0.125988
0.0984209
0.0698691
0.330383
0.328519
0.326334
0.32355
0.320061
0.315787
0.310666
0.304638
0.297603
0.289426
0.279995
0.269255
0.257176
0.243724
0.228882
0.21267
0.195146
0.176398
0.156553
0.135768
0.114162
0.0918401
0.0690133
0.281046
0.279069
0.276984
0.274443
0.271352
0.267624
0.26319
0.257995
0.251969
0.245011
0.237043
0.228033
0.217966
0.206814
0.194548
0.181183
0.166792
0.15148
0.135367
0.118586
0.101269
0.0835429
0.065619
0.231796
0.229976
0.228118
0.225915
0.223294
0.220174
0.216473
0.212139
0.207133
0.201403
0.194901
0.187597
0.179473
0.170505
0.160672
0.149994
0.138541
0.126417
0.113725