/*--------------------------------*- C++ -*----------------------------------*\
| =========                 |                                                 |
| \\      /  F ield         | OpenFOAM: The Open Source CFD Toolbox           |
|  \\    /   O peration     | Version:  v1912                                 |
|   \\  /    A nd           | Website:  www.openfoam.com                      |
|    \\/     M anipulation  |                                                 |
\*---------------------------------------------------------------------------*/
FoamFile
{
    version     2.0;
    format      ascii;
    class       surfaceScalarField;
    location    "0.6";
    object      phi;
}
// * * * * * * * * * * * * * * * * * * * * * * * * * * * * * * * * * * * * * //

dimensions      [0 3 -1 0 0 0 0];
oriented        oriented;


internalField   nonuniform List<scalar> 
17936
(
-1.23784e-06
3.02296e-06
-1.78512e-06
2.48092e-06
-2.94581e-06
4.6489e-07
2.62719e-06
-1.86822e-06
-7.58972e-07
8.61527e-07
3.59503e-07
-1.22103e-06
-1.75503e-06
3.14726e-06
-1.39223e-06
-4.35533e-06
5.26696e-06
-9.11629e-07
-5.85586e-06
6.15087e-06
-2.95014e-07
-6.19072e-06
6.01579e-06
1.74928e-07
-5.69328e-06
5.29471e-06
3.98566e-07
-4.87417e-06
4.46172e-06
4.12449e-07
-4.06762e-06
3.69357e-06
3.74043e-07
-3.33726e-06
2.99476e-06
3.42501e-07
-2.65982e-06
2.32231e-06
3.37513e-07
-1.96559e-06
1.56268e-06
4.02901e-07
-1.07169e-06
4.30295e-07
6.41399e-07
4.41247e-07
-1.63878e-06
1.19753e-06
3.22061e-06
-4.93864e-06
1.71803e-06
6.17587e-06
-7.05325e-06
8.77385e-07
8.76755e-06
-1.00097e-05
1.24216e-06
8.01627e-06
-3.63586e-06
-4.3804e-06
6.97594e-07
-3.16787e-06
2.47028e-06
1.05805e-05
-1.59278e-05
5.34728e-06
1.35019e-05
-5.79699e-06
-7.70495e-06
-4.75563e-06
6.33384e-06
-1.57821e-06
2.64346e-06
-2.75998e-06
-6.05918e-07
7.22438e-07
2.32832e-06
-1.64426e-06
1.52919e-06
-2.21325e-06
8.20004e-07
2.35794e-07
2.40294e-06
-3.45873e-06
-1.56556e-06
2.97438e-06
2.80406e-06
-4.21288e-06
-4.22238e-06
5.17203e-06
1.8595e-06
-2.80915e-06
-5.79973e-06
6.14688e-06
6.46762e-07
-9.9391e-07
-6.272e-06
6.23604e-06
-1.78496e-07
2.14464e-07
-6.0859e-06
5.85628e-06
-6.1995e-07
8.49564e-07
-5.57038e-06
5.24791e-06
-7.69841e-07
1.09231e-06
-4.90752e-06
4.56512e-06
-7.56656e-07
1.09906e-06
-4.23223e-06
3.91561e-06
-6.8667e-07
1.00329e-06
-3.61749e-06
3.33686e-06
-6.32237e-07
9.12864e-07
-3.07087e-06
2.81637e-06
-6.68382e-07
9.2288e-07
-2.57298e-06
2.34738e-06
-9.54986e-07
1.18058e-06
-2.15365e-06
1.99338e-06
-1.89513e-06
2.0554e-06
-1.78152e-06
1.20107e-06
-3.59556e-06
4.17602e-06
2.51756e-07
-2.68523e-06
-3.642e-06
6.07548e-06
5.07336e-06
-6.92791e-06
-1.72995e-06
3.5845e-06
8.19854e-06
-8.65336e-06
6.62016e-06
-6.16535e-06
9.84783e-06
-1.30016e-05
-7.17366e-06
1.03274e-05
1.56417e-05
-1.50589e-05
-6.43527e-06
5.85252e-06
1.20892e-05
-6.87045e-06
1.45021e-05
-1.97208e-05
-7.75015e-06
8.99185e-06
-1.24171e-06
2.21939e-06
-2.27366e-06
-8.11677e-07
8.65946e-07
2.06243e-06
-2.02219e-06
2.68161e-06
-2.72185e-06
1.88018e-06
-1.17139e-06
4.36276e-06
-5.07155e-06
-2.21427e-07
1.91017e-06
5.6847e-06
-7.37344e-06
-3.35513e-06
4.37684e-06
3.78108e-06
-4.80278e-06
-5.01928e-06
5.37778e-06
1.3461e-06
-1.70459e-06
-5.53089e-06
5.53724e-06
-2.36605e-07
2.3026e-07
-5.44101e-06
5.27455e-06
-1.06014e-06
1.2266e-06
-5.06161e-06
4.81984e-06
-1.38198e-06
1.62375e-06
-4.56281e-06
4.30046e-06
-1.40391e-06
1.66626e-06
-4.03925e-06
3.78296e-06
-1.29104e-06
1.54732e-06
-3.53329e-06
3.2904e-06
-1.17682e-06
1.41971e-06
-3.05345e-06
2.82095e-06
-1.17255e-06
1.40505e-06
-2.59219e-06
2.36959e-06
-1.42055e-06
1.64315e-06
-2.16336e-06
2.0038e-06
-2.18644e-06
2.34599e-06
-1.96732e-06
2.18175e-06
-3.99259e-06
3.77817e-06
-2.68177e-06
3.26509e-06
-6.76289e-06
6.17957e-06
-3.48842e-06
2.56386e-06
-5.50537e-06
6.42993e-06
-3.52833e-08
-4.10647e-06
3.10354e-06
1.03822e-06
6.78568e-06
-6.7233e-06
-1.15649e-05
1.15025e-05
5.97095e-06
-4.54721e-06
-4.67056e-06
3.24683e-06
3.59863e-06
-2.74724e-06
2.2807e-05
-2.36584e-05
-1.00275e-05
1.08066e-05
-7.79095e-07
1.70142e-06
-1.94608e-06
-9.59771e-07
1.20443e-06
2.62364e-06
-3.62868e-06
2.18411e-06
-1.17907e-06
4.21705e-06
-3.78152e-06
5.6157e-06
-6.05123e-06
2.13083e-06
2.03305e-07
9.41886e-06
-1.1753e-05
-2.22851e-06
3.47312e-06
5.91857e-06
-7.16318e-06
-4.11593e-06
4.44167e-06
2.05683e-06
-2.38257e-06
-4.60821e-06
4.67467e-06
-1.91979e-07
1.25519e-07
-4.66994e-06
4.61213e-06
-1.34035e-06
1.39817e-06
-4.51483e-06
4.38762e-06
-1.80954e-06
1.93675e-06
-4.23765e-06
4.0704e-06
-1.88142e-06
2.04868e-06
-3.88971e-06
3.69858e-06
-1.77037e-06
1.96149e-06
-3.49996e-06
3.2972e-06
-1.64137e-06
1.84412e-06
-3.09402e-06
2.89429e-06
-1.61981e-06
1.81955e-06
-2.70306e-06
2.52811e-06
-1.83976e-06
2.01471e-06
-2.38181e-06
2.28279e-06
-2.47933e-06
2.57834e-06
-2.25589e-06
2.33267e-06
-3.67993e-06
3.60315e-06
-2.57598e-06
3.11837e-06
-5.37355e-06
4.83116e-06
-4.00407e-06
4.72359e-06
-6.20386e-06
5.48434e-06
-4.53022e-06
3.13614e-06
-4.07976e-06
5.47384e-06
-1.21592e-06
1.785e-06
-1.09044e-05
1.03354e-05
-4.41736e-06
4.79287e-06
-2.02298e-06
1.64748e-06
-3.65889e-06
1.68749e-06
2.29446e-05
-2.09732e-05
-1.12591e-05
1.13075e-05
-4.84175e-08
9.30449e-07
-1.4326e-06
-1.63637e-06
2.13852e-06
2.28406e-06
-2.97342e-06
9.37182e-08
5.95648e-07
3.07935e-06
-2.45584e-06
6.4888e-06
-7.11231e-06
1.24609e-06
2.75576e-07
1.39509e-05
-1.54726e-05
-1.84307e-06
2.95991e-06
8.47504e-06
-9.59188e-06
-3.51052e-06
3.73943e-06
2.66397e-06
-2.89289e-06
-3.8602e-06
3.95396e-06
-4.00184e-08
-5.37435e-08
-4.02846e-06
4.07671e-06
-1.40064e-06
1.35238e-06
-4.0922e-06
4.07305e-06
-2.00713e-06
2.02627e-06
-4.01989e-06
3.93451e-06
-2.1715e-06
2.25688e-06
-3.81894e-06
3.67623e-06
-2.12505e-06
2.26776e-06
-3.51166e-06
3.33305e-06
-2.03217e-06
2.21078e-06
-3.14916e-06
2.96844e-06
-2.00789e-06
2.18862e-06
-2.79986e-06
2.6542e-06
-2.17293e-06
2.31859e-06
-2.54473e-06
2.48782e-06
-2.65257e-06
2.70947e-06
-2.50314e-06
2.61095e-06
-3.50726e-06
3.39945e-06
-2.8207e-06
3.1229e-06
-4.4798e-06
4.1776e-06
-3.48895e-06
3.89026e-06
-4.86184e-06
4.46053e-06
-4.25491e-06
4.81648e-06
-5.4744e-06
4.91283e-06
-5.69466e-06
6.90014e-06
-9.69155e-06
8.48606e-06
-8.51813e-06
8.7478e-06
-1.33559e-06
1.10592e-06
-7.12704e-06
3.93534e-06
1.82233e-05
-1.50316e-05
-1.07388e-05
9.46253e-06
1.27627e-06
-6.50425e-07
6.24946e-07
-2.50033e-06
2.52581e-06
-8.74253e-07
1.79377e-06
-5.92721e-07
-3.26801e-07
-3.33699e-06
4.83432e-06
8.18802e-06
-9.68535e-06
-5.44886e-06
4.89908e-06
1.5983e-05
-1.54332e-05
-3.90659e-06
3.33981e-06
1.00677e-05
-9.50092e-06
-3.25903e-06
3.35406e-06
3.06518e-06
-3.16021e-06
-3.46582e-06
3.58184e-06
1.50827e-07
-2.66851e-07
-3.70818e-06
3.8298e-06
-1.26269e-06
1.14106e-06
-3.92399e-06
3.97609e-06
-2.00356e-06
1.95146e-06
-3.98126e-06
3.93973e-06
-2.31458e-06
2.35612e-06
-3.85323e-06
3.72517e-06
-2.39808e-06
2.52614e-06
-3.56441e-06
3.385e-06
-2.38588e-06
2.56529e-06
-3.20135e-06
3.02512e-06
-2.36501e-06
2.54124e-06
-2.86706e-06
2.73871e-06
-2.45465e-06
2.583e-06
-2.65182e-06
2.61821e-06
-2.75364e-06
2.78726e-06
-2.65099e-06
2.76274e-06
-3.28845e-06
3.17671e-06
-2.95975e-06
3.23696e-06
-3.88573e-06
3.60852e-06
-3.56432e-06
3.88975e-06
-4.14578e-06
3.82035e-06
-4.19394e-06
4.61432e-06
-4.37154e-06
3.95116e-06
-5.67616e-06
7.43628e-06
-6.68559e-06
4.92547e-06
-9.10639e-06
9.37423e-06
-9.36507e-07
6.68673e-07
-7.71347e-06
4.43408e-06
1.16139e-05
-8.33448e-06
-7.4435e-06
4.75486e-06
2.68864e-06
-3.34651e-06
4.28779e-06
-2.1311e-06
1.18982e-06
-5.90604e-06
8.99502e-06
2.22254e-06
-5.31151e-06
-1.25408e-05
1.43595e-05
1.1655e-05
-1.34737e-05
-1.32879e-05
1.01466e-05
1.36604e-05
-1.05191e-05
-6.69156e-06
4.3668e-06
7.83297e-06
-5.50821e-06
-3.38012e-06
3.17242e-06
3.12842e-06
-2.92073e-06
-3.26426e-06
3.45335e-06
4.29595e-07
-6.18688e-07
-3.66892e-06
3.8716e-06
-9.83707e-07
7.81026e-07
-4.02527e-06
4.11587e-06
-1.8796e-06
1.789e-06
-4.14428e-06
4.1149e-06
-2.39129e-06
2.42066e-06
-4.02883e-06
3.88661e-06
-2.66149e-06
2.80371e-06
-3.69959e-06
3.49004e-06
-2.75888e-06
2.96843e-06
-3.27808e-06
3.07767e-06
-2.72576e-06
2.92617e-06
-2.9029e-06
2.76969e-06
-2.70836e-06
2.84157e-06
-2.68986e-06
2.66979e-06
-2.81138e-06
2.83145e-06
-2.7157e-06
2.83265e-06
-3.06329e-06
2.94635e-06
-3.0201e-06
3.27214e-06
-3.3466e-06
3.09456e-06
-3.57858e-06
3.92669e-06
-3.47545e-06
3.12734e-06
-4.31558e-06
4.7624e-06
-3.54336e-06
3.09653e-06
-5.36358e-06
6.2018e-06
-3.64984e-06
2.81161e-06
-7.09247e-06
7.28881e-06
-3.59077e-07
1.62729e-07
-6.24266e-06
3.92303e-06
5.5047e-06
-3.18507e-06
-1.60516e-06
-1.68935e-06
3.29451e-06
-6.28221e-06
9.13258e-06
4.58798e-07
-3.30917e-06
-1.34846e-05
1.79485e-05
9.77863e-06
-1.42426e-05
-1.84342e-05
1.52077e-05
1.35395e-05
-1.03129e-05
-1.09246e-05
7.82924e-06
6.47765e-06
-3.38232e-06
-6.13269e-06
5.37763e-06
3.45624e-06
-2.70118e-06
-4.88365e-06
4.48698e-06
2.55494e-06
-2.15827e-06
-4.25412e-06
4.18928e-06
7.22528e-07
-6.57686e-07
-4.22914e-06
4.29593e-06
-5.78482e-07
5.11697e-07
-4.33366e-06
4.32306e-06
-1.70067e-06
1.71128e-06
-4.26846e-06
4.17961e-06
-2.44941e-06
2.53827e-06
-4.055e-06
3.88371e-06
-2.94309e-06
3.11438e-06
-3.68113e-06
3.48027e-06
-3.17521e-06
3.37607e-06
-3.29472e-06
3.12196e-06
-3.12846e-06
3.30121e-06
-2.96459e-06
2.83618e-06
-2.98707e-06
3.11548e-06
-2.74674e-06
2.70462e-06
-2.86153e-06
2.90365e-06
-2.7281e-06
2.83024e-06
-2.82957e-06
2.72743e-06
-3.00764e-06
3.25071e-06
-2.84636e-06
2.60329e-06
-3.5491e-06
3.89267e-06
-2.78261e-06
2.43904e-06
-4.28214e-06
4.7359e-06
-2.63268e-06
2.17891e-06
-5.27192e-06
5.82432e-06
-2.18511e-06
1.63271e-06
-6.24586e-06
6.26815e-06
-1.12419e-07
9.01315e-08
-5.58329e-06
4.10303e-06
1.23849e-06
2.41766e-07
-1.58871e-05
3.59312e-05
-2.00441e-05
2.39028e-05
-2.58006e-05
1.89777e-06
2.66529e-05
-2.76373e-05
9.84371e-07
2.81226e-05
-2.76986e-05
-4.24004e-07
2.58654e-05
-2.1154e-05
-4.71139e-06
3.99201e-06
1.54002e-05
-1.93922e-05
-3.08132e-05
4.17317e-05
-1.09185e-05
-4.73539e-05
4.43629e-05
2.99099e-06
-3.42843e-05
2.72973e-05
6.98693e-06
-2.51816e-05
1.51295e-05
1.00521e-05
3.03078e-05
-6.98226e-05
3.95148e-05
7.75756e-05
-7.62004e-05
-1.37522e-06
7.39238e-05
-7.19244e-05
-1.99938e-06
7.04811e-05
-6.98261e-05
-6.55028e-07
7.02556e-05
-7.21006e-05
1.845e-06
7.59971e-05
-8.22664e-05
6.26938e-06
8.99509e-05
-9.66206e-05
6.66967e-06
9.58115e-05
-7.30744e-05
-2.27371e-05
2.67617e-05
6.86876e-06
-3.36305e-05
-4.58721e-05
4.78178e-05
-1.94572e-06
3.05066e-05
-2.99504e-05
2.25049e-06
-2.80663e-06
2.31433e-05
-2.05994e-05
-8.18323e-07
-1.72562e-06
2.31074e-05
-2.26e-05
-3.86122e-07
-1.2122e-07
2.35872e-05
5.79141e-06
1.49577e-05
-4.43363e-05
-2.4073e-05
3.47543e-05
3.52152e-05
-4.58964e-05
-4.29456e-05
4.99703e-05
1.96172e-05
-2.66419e-05
-5.49002e-05
5.65107e-05
-1.05579e-07
-1.50491e-06
-5.53444e-05
5.2459e-05
-1.08498e-05
1.37353e-05
-3.23387e-05
-1.83744e-05
-5.06475e-05
0.000101361
7.51354e-05
-0.000102306
-7.86528e-05
0.000105823
0.00013237
-0.000140253
5.21386e-06
2.66848e-06
0.000135635
-0.000131559
5.18876e-06
-9.26481e-06
0.000127604
-0.000124045
2.06963e-06
-5.62938e-06
0.000121952
-0.000122436
-4.04647e-06
4.52983e-06
0.000125258
-0.000129134
-9.61988e-06
1.34963e-05
0.000130641
-0.000124318
-6.77194e-06
4.4832e-07
0.000110224
-8.13785e-05
4.41424e-05
-7.29877e-05
4.59865e-05
-1.65138e-05
7.1741e-05
-0.000101214
-5.35513e-05
6.10189e-05
-7.46754e-06
1.92513e-05
-2.37712e-05
-9.63901e-06
1.41589e-05
2.33076e-05
-1.40905e-05
1.0219e-05
-1.94361e-05
-3.68802e-07
1.58789e-05
1.36669e-05
-2.91769e-05
-3.49475e-05
3.67552e-05
6.01023e-05
-6.19101e-05
-3.77693e-05
4.19743e-05
5.18377e-05
-5.60427e-05
-4.72031e-05
5.21666e-05
3.25682e-05
-3.75317e-05
-5.50119e-05
5.34829e-05
1.58993e-06
-6.09357e-08
-4.65571e-05
3.3601e-05
-1.96765e-05
3.26325e-05
-5.08913e-07
-3.66773e-05
-0.000145077
0.000182263
5.97876e-05
-7.04726e-05
-0.000132254
0.000142939
8.28818e-05
-8.6697e-05
-1.84398e-05
2.2255e-05
8.65151e-05
-8.88336e-05
-4.0213e-06
6.33978e-06
9.59614e-05
-0.000105391
-4.53173e-06
1.39617e-05
0.000112579
-0.000116153
-4.53952e-06
8.11348e-06
0.000118369
-0.000119772
-7.63172e-06
9.03474e-06
0.000118631
-0.000121097
1.91417e-05
-1.66755e-05
0.000109902
-6.90551e-05
0.000113115
-0.000153962
4.53104e-05
-2.46397e-05
0.000126849
-0.00014752
-6.51701e-05
7.2806e-05
-7.63597e-06
-2.75161e-06
-3.55828e-06
-1.70029e-05
2.33128e-05
-1.55439e-05
2.5695e-05
2.60787e-05
-3.62298e-05
-3.21406e-05
3.91895e-05
4.02856e-05
-4.73344e-05
-4.095e-05
4.13593e-05
6.18305e-05
-6.22397e-05
-4.31273e-05
4.66654e-05
6.00603e-05
-6.35984e-05
-4.95224e-05
5.13107e-05
4.11216e-05
-4.29099e-05
-5.24107e-05
4.51689e-05
-3.87633e-06
1.11181e-05
-2.49752e-05
-4.29826e-06
-5.4586e-05
8.38595e-05
3.52124e-05
-4.95175e-05
-0.000210314
0.000224619
3.00481e-05
-2.06583e-05
-0.000141032
0.000131642
3.83374e-05
-5.75315e-05
-3.52061e-05
5.44002e-05
6.52689e-05
-5.51468e-05
3.52803e-06
-1.36501e-05
3.17893e-05
-2.38587e-06
-1.15699e-08
-2.93918e-05
-2.07463e-05
2.62274e-05
-7.6853e-06
2.20419e-06
-1.43545e-05
2.21572e-06
-1.72908e-05
2.94296e-05
9.2954e-06
-2.77877e-05
-3.042e-06
2.15343e-05
3.21196e-05
-3.25922e-05
0.000173357
-0.000172884
3.13589e-05
-2.17662e-05
0.000162084
-0.000171677
-7.70992e-05
7.58352e-05
1.26397e-06
-1.96066e-05
3.91426e-05
-1.57563e-05
-3.77967e-06
-3.5399e-05
3.41307e-05
4.28511e-05
-4.15828e-05
-3.74573e-05
3.85148e-05
5.01505e-05
-5.12079e-05
-4.07101e-05
4.30708e-05
6.3783e-05
-6.61437e-05
-4.50286e-05
4.45675e-05
6.58862e-05
-6.54251e-05
-4.08796e-05
3.93832e-05
4.26918e-05
-4.11953e-05
-3.92213e-05
2.95657e-05
-2.04949e-05
3.01505e-05
-1.36046e-05
-1.06093e-05
-0.000113972
0.000138186
3.27271e-05
-2.72255e-05
-0.000227558
0.000222056
1.2321e-05
-1.17748e-05
-0.000122799
0.000122253
1.45915e-05
-2.19331e-05
-6.97109e-05
7.70524e-05
2.92743e-05
-2.43382e-05
2.17003e-05
-2.66365e-05
8.99531e-06
7.30931e-06
5.5268e-05
-7.15726e-05
-2.01289e-05
3.13617e-05
1.28749e-05
-2.41078e-05
-4.20168e-05
3.74163e-05
-4.82397e-05
5.28403e-05
-1.80654e-05
8.34571e-06
-3.41741e-05
4.38939e-05
6.05287e-06
-1.71358e-05
0.000161743
-0.00015066
2.20301e-05
-1.69702e-05
0.000178119
-0.000183178
-6.18505e-05
4.1153e-05
2.06975e-05
-2.40231e-05
2.85082e-05
1.97576e-05
-2.42427e-05
-3.04988e-05
3.18908e-05
4.35254e-05
-4.49174e-05
-3.49513e-05
3.79776e-05
5.38472e-05
-5.68735e-05
-4.06573e-05
4.23816e-05
6.84879e-05
-7.02122e-05
-4.06207e-05
2.85763e-05
5.99373e-05
-4.7893e-05
-1.92815e-05
3.04936e-05
4.2392e-05
-5.3604e-05
-2.86422e-05
1.69695e-05
-3.9873e-05
5.15457e-05
-7.38867e-06
-2.07044e-06
-0.000151835
0.000161294
8.20113e-06
2.15896e-07
-0.000214673
0.000206256
-1.0141e-05
-1.01561e-06
-0.000130092
0.000141249
1.74295e-05
-2.88485e-05
-8.18802e-05
9.32992e-05
3.15272e-05
-2.1776e-05
2.97745e-05
-3.95258e-05
3.39391e-06
1.20365e-05
8.6864e-05
-0.000102294
-2.27541e-05
3.31905e-05
3.2036e-05
-4.24724e-05
-3.76135e-05
4.11643e-05
-4.75808e-05
4.403e-05
-3.98987e-05
1.68018e-05
-6.23468e-05
8.54438e-05
7.18482e-06
-1.93552e-05
0.00014134
-0.00012917
2.23837e-05
-1.33702e-05
0.000189143
-0.000198157
-2.57575e-05
1.40468e-05
1.17107e-05
-2.00356e-05
2.49497e-05
2.70998e-05
-3.20139e-05
-2.9275e-05
3.29036e-05
4.83547e-05
-5.19834e-05
-3.52857e-05
3.74868e-05
5.94724e-05
-6.16735e-05
-3.9529e-05
3.87761e-05
7.09092e-05
-7.01562e-05
-3.05284e-05
1.69881e-05
3.46091e-05
-2.10688e-05
-1.83724e-05
3.12785e-05
6.86254e-05
-8.15314e-05
-1.7173e-05
1.1082e-05
-6.06579e-05
6.6749e-05
-5.44907e-06
-3.21306e-06
-0.000169105
0.000177767
5.6348e-06
-5.10673e-08
-0.000197888
0.000192305
-4.88427e-06
-1.00857e-05
-0.000153074
0.000168044
3.91662e-05
-5.16612e-05
-0.000112022
0.000124517
3.8845e-05
-2.14799e-05
5.86319e-05
-7.59971e-05
1.30393e-05
-1.24817e-06
0.000118628
-0.000130419
-1.00489e-05
2.18632e-05
5.47853e-05
-6.65995e-05
-3.02103e-05
3.25096e-05
-4.36651e-05
4.13658e-05
-2.40696e-05
4.32721e-06
-0.000108737
0.00012848
1.01433e-05
-6.75981e-06
0.000120733
-0.000124116
9.23255e-06
-8.95739e-06
0.000204232
-0.000204507
-1.97267e-05
1.5476e-06
1.81791e-05
-2.31817e-05
2.85281e-05
3.75131e-05
-4.28595e-05
-3.12641e-05
3.25663e-05
5.44186e-05
-5.57208e-05
-3.39618e-05
3.63127e-05
6.39611e-05
-6.6312e-05
-3.53306e-05
3.24507e-05
6.79308e-05
-6.50509e-05
-1.87546e-05
1.48238e-05
1.20032e-05
-8.07242e-06
-1.30219e-05
1.37924e-05
8.83688e-05
-8.91394e-05
-4.55543e-06
-5.00662e-07
-7.06942e-05
7.57503e-05
7.92399e-06
-2.08027e-05
-0.000188615
0.000201494
1.50693e-05
-1.54334e-05
-0.000189576
0.00018994
2.93752e-05
-5.03805e-05
-0.000188679
0.000209685
6.02808e-05
-5.21136e-05
-0.000125416
0.000117249
3.53559e-05
-2.67245e-05
8.90436e-05
-9.7675e-05
2.38196e-05
-2.3608e-05
0.00013492
-0.000135132
1.25147e-05
-3.89323e-07
8.03201e-05
-9.24455e-05
-7.55179e-06
1.04855e-05
-3.84873e-05
3.55537e-05
-5.81777e-06
-1.80987e-06
-0.000143282
0.000150909
1.1353e-06
4.3879e-06
0.00013153
-0.000137053
-4.7018e-06
-3.70182e-06
0.000198394
-0.000189991
9.7226e-06
-1.8245e-05
8.52236e-06
-1.7617e-05
2.16919e-05
7.5988e-06
-1.16737e-05
-1.63868e-05
-1.30852e-06
1.48831e-05
2.81221e-06
1.43128e-05
-1.21523e-05
4.95594e-06
-7.11644e-06
5.47279e-06
-4.11649e-07
3.74275e-06
-8.80389e-06
-3.27277e-06
5.47719e-06
3.22513e-06
-5.42956e-06
-7.24556e-06
9.05313e-06
1.97479e-06
-3.78236e-06
-1.07882e-05
1.22521e-05
5.8627e-07
-2.05015e-06
-1.33296e-05
1.40658e-05
-5.89363e-07
-1.46878e-07
-1.43151e-05
1.41448e-05
-1.95675e-06
2.12711e-06
-1.36673e-05
1.29553e-05
-2.83289e-06
3.54493e-06
-1.19613e-05
1.0588e-05
-3.44618e-06
4.81942e-06
-9.09866e-06
7.77078e-06
-3.6427e-06
4.97058e-06
-6.71766e-06
5.95645e-06
-3.44765e-06
4.20886e-06
-5.50848e-06
5.38353e-06
-3.18634e-06
3.31128e-06
-5.47295e-06
5.64519e-06
-2.92398e-06
2.75175e-06
-5.88761e-06
6.18278e-06
-2.6455e-06
2.35032e-06
-6.50531e-06
6.89926e-06
-2.3817e-06
1.98775e-06
-7.41173e-06
8.04464e-06
-2.09737e-06
1.46446e-06
-8.79393e-06
9.66852e-06
-1.73918e-06
8.64598e-07
-1.06646e-05
1.17133e-05
-1.11384e-06
6.51827e-08
-1.2756e-05
1.36842e-05
-4.9306e-08
-8.78924e-07
-1.48487e-05
1.74617e-05
-1.60083e-06
-1.01216e-06
1.20957e-05
-7.19379e-08
-1.20238e-05
2.1874e-05
-3.1182e-05
-1.12395e-05
2.05475e-05
2.63809e-05
-2.57767e-05
-3.22133e-06
2.61715e-06
4.37201e-05
-6.75166e-05
5.62517e-06
1.81713e-05
8.55603e-05
-9.40572e-05
9.53977e-06
-1.04288e-06
9.69194e-05
-9.61402e-05
1.1009e-05
-1.17882e-05
9.33736e-05
-8.99938e-05
9.5572e-06
-1.2937e-05
8.62656e-05
-8.0361e-05
6.9776e-06
-1.28822e-05
6.93583e-05
-5.4987e-05
5.33197e-06
-1.97032e-05
3.53424e-05
-2.03148e-05
1.51208e-06
-1.65397e-05
9.88665e-06
-3.2134e-06
-2.11102e-06
-4.56224e-06
-1.09574e-06
4.59641e-06
-5.57189e-06
2.07122e-06
-7.11451e-06
9.11491e-06
-6.26149e-06
4.26109e-06
-9.63106e-06
9.07692e-06
-5.54469e-06
6.09883e-06
-7.66276e-06
6.5109e-06
-4.28424e-06
5.4361e-06
-5.29469e-06
4.41571e-06
-3.00928e-06
3.88826e-06
-4.13159e-06
4.17326e-06
-1.7572e-06
1.71554e-06
-4.47109e-06
5.25768e-06
-1.27113e-06
4.84546e-07
-6.36611e-06
7.43006e-06
-8.20111e-07
-2.4383e-07
-8.36592e-06
9.25313e-06
-1.63901e-07
-7.23308e-07
-1.01319e-05
1.10212e-05
8.88284e-07
-1.77752e-06
-1.1964e-05
1.30398e-05
2.01691e-06
-3.09273e-06
-1.44584e-05
1.63308e-05
2.9972e-06
-4.8696e-06
-8.55118e-06
1.30197e-05
-4.46853e-06
1.06276e-05
-1.48744e-05
-1.90179e-05
2.32647e-05
1.94009e-05
-1.84702e-05
-8.48929e-06
7.55853e-06
1.36425e-05
-1.38686e-05
-2.95708e-05
2.97969e-05
1.12839e-05
-8.563e-06
-3.82511e-07
-2.33841e-06
8.0653e-06
-9.42397e-06
1.35576e-05
-1.21989e-05
1.12859e-05
-1.30878e-05
1.4273e-05
-1.24711e-05
1.50067e-05
-1.76131e-05
1.21642e-05
-9.55783e-06
2.14109e-05
-2.68053e-05
1.52685e-05
-9.87417e-06
3.30121e-05
-3.66555e-05
1.31909e-05
-9.54746e-06
4.0871e-05
-4.71388e-05
1.4222e-05
-7.95419e-06
5.13797e-05
-5.61895e-05
1.55149e-05
-1.07051e-05
5.35152e-05
-4.60774e-05
3.30736e-06
-1.07452e-05
2.99444e-05
-1.73883e-05
-3.17882e-06
-9.37733e-06
1.042e-05
-5.29676e-06
-4.00402e-06
-1.11921e-06
3.04196e-07
2.65076e-06
-5.04124e-06
2.08628e-06
-5.04133e-06
5.51704e-06
-2.66123e-06
2.18552e-06
-4.47604e-06
3.44935e-06
-1.76372e-07
1.20306e-06
-2.77892e-06
2.35804e-06
1.39385e-06
-9.72977e-07
-2.65624e-06
3.92431e-06
2.03213e-06
-3.3002e-06
-5.62494e-06
7.2877e-06
3.00046e-06
-4.66322e-06
-8.84099e-06
1.02596e-05
4.23152e-06
-5.65009e-06
-1.14331e-05
1.2373e-05
6.23042e-06
-7.17028e-06
-1.46705e-05
1.52837e-05
-6.13161e-07
-2.31831e-06
6.99624e-06
-2.39548e-05
1.92769e-05
-6.89928e-06
4.9115e-06
-7.68673e-06
9.67451e-06
-8.30374e-06
1.54539e-05
-2.09571e-05
1.3807e-05
-1.77546e-05
1.5075e-05
1.98985e-06
6.89759e-07
-1.04786e-05
6.41455e-06
8.80365e-06
-4.73957e-06
-2.83811e-06
-4.19725e-08
9.3158e-06
-6.43572e-06
1.81867e-06
-2.76859e-06
6.37427e-06
-5.42434e-06
3.43227e-06
-4.91105e-06
5.02254e-06
-3.54376e-06
8.98663e-06
-1.4801e-05
6.59771e-06
-7.83341e-07
1.95742e-05
-2.12894e-05
6.54202e-06
-4.82681e-06
2.08006e-05
-2.00318e-05
5.99957e-06
-6.7683e-06
1.93412e-05
-2.06063e-05
4.00207e-06
-2.7369e-06
2.57802e-05
-3.05247e-05
5.1026e-06
-3.58067e-07
3.79091e-05
-4.73809e-05
1.03303e-05
-8.58455e-07
5.79908e-05
-5.74969e-05
7.48868e-06
-7.98253e-06
5.08605e-05
-3.91319e-05
3.83308e-06
-1.55617e-05
2.76762e-05
-2.08648e-05
2.26774e-06
-9.07916e-06
1.05457e-05
-3.19662e-06
8.85504e-07
-8.2346e-06
-2.04929e-06
6.19481e-06
3.71712e-06
-7.86264e-06
-7.80355e-06
7.89207e-06
5.02548e-06
-5.114e-06
-8.08129e-06
8.65923e-06
6.33173e-06
-6.90968e-06
-8.78337e-06
8.66975e-06
7.69041e-06
-7.57679e-06
-1.586e-05
1.66449e-05
-7.84968e-07
-4.243e-07
3.69947e-06
-1.42072e-05
1.0932e-05
-5.71667e-06
5.46049e-06
-1.12766e-05
1.15328e-05
-5.4497e-06
6.60259e-06
-1.07172e-05
9.56429e-06
-6.81777e-06
5.61079e-06
-2.98261e-06
4.1896e-06
-3.61853e-06
1.5222e-06
1.94191e-06
1.54429e-07
5.72474e-07
-2.56628e-06
3.84249e-06
-1.84868e-06
4.28338e-06
-5.82711e-06
3.91884e-06
-2.37511e-06
7.33536e-06
-8.47149e-06
4.01273e-06
-2.8766e-06
8.73182e-06
-8.21798e-06
-4.81316e-07
-3.25174e-08
8.27972e-06
-9.22921e-06
9.26617e-07
2.28677e-08
1.08737e-05
-1.26915e-05
3.76359e-06
-1.94572e-06
1.46838e-05
-1.70498e-05
3.89781e-06
-1.53182e-06
1.93345e-05
-2.06332e-05
2.9559e-06
-1.65719e-06
1.9089e-05
-1.46145e-05
-3.83281e-06
-6.41592e-07
1.14227e-05
-1.08732e-05
2.45874e-06
-3.00819e-06
1.2805e-05
-2.0317e-05
3.21431e-06
4.29767e-06
2.82591e-05
-3.48032e-05
8.33522e-06
-1.79108e-06
4.48982e-05
-5.6647e-05
1.88544e-05
-7.10565e-06
6.82943e-05
-7.60804e-05
1.82104e-05
-1.04243e-05
8.1731e-05
-7.92569e-05
8.64323e-06
-1.11174e-05
6.70182e-05
-5.19497e-05
1.42312e-05
-2.92997e-05
3.33043e-05
-2.32215e-05
9.39615e-06
-1.94789e-05
-1.76473e-05
1.88713e-05
-1.22406e-06
6.40264e-07
7.02543e-07
-8.91736e-06
7.57455e-06
-1.7299e-06
2.20364e-06
-1.11708e-05
1.0697e-05
-2.45856e-06
2.67293e-06
-9.04347e-06
8.82911e-06
-2.48529e-06
1.8295e-06
-4.98515e-06
5.64094e-06
-7.87143e-07
-4.95806e-07
-1.70266e-06
2.9856e-06
1.89926e-06
-3.30912e-06
1.33688e-07
1.27617e-06
4.68369e-06
-6.00551e-06
9.1755e-07
4.04266e-07
7.34551e-06
-8.76328e-06
1.46715e-06
-4.93898e-08
9.91234e-06
-1.03625e-05
-2.17232e-07
6.67434e-07
1.04959e-05
-1.08584e-05
-4.2309e-07
7.85611e-07
1.15877e-05
-1.23854e-05
4.74239e-07
3.23553e-07
1.32386e-05
-1.42336e-05
8.37288e-07
1.57746e-07
1.52529e-05
-1.61526e-05
1.24718e-06
-3.47469e-07
1.64968e-05
-1.58318e-05
-7.34513e-08
-5.91546e-07
1.53936e-05
-1.65212e-05
2.5737e-06
-1.44608e-06
1.84078e-05
-1.83007e-05
1.04416e-06
-1.15125e-06
1.60277e-05
-1.46164e-05
1.83463e-06
-3.24587e-06
1.32248e-05
-1.07865e-05
3.21719e-06
-5.65551e-06
9.84274e-06
-6.21661e-06
4.47288e-06
-8.09901e-06
2.34388e-06
-3.79069e-07
1.49237e-06
-3.45718e-06
2.89911e-06
-1.1057e-05
1.94599e-05
-1.13019e-05
2.15391e-05
-3.16947e-05
2.36713e-05
-1.35157e-05
-2.03346e-05
2.20334e-05
-1.6988e-06
1.67772e-06
-9.82461e-07
-6.61944e-06
5.92418e-06
3.46176e-07
-2.70936e-08
-1.02876e-05
9.96848e-06
-7.7795e-08
1.56584e-08
-8.77672e-06
8.83885e-06
2.50887e-07
-7.63035e-07
-6.20751e-06
6.71966e-06
1.48721e-06
-2.38218e-06
-4.03779e-06
4.93275e-06
3.39763e-06
-4.48513e-06
-2.5242e-06
3.6117e-06
5.60467e-06
-6.73106e-06
-1.6334e-06
2.75979e-06
7.85268e-06
-8.96418e-06
-1.19363e-06
2.30513e-06
9.98722e-06
-1.08298e-05
-1.40342e-06
2.24601e-06
1.1545e-05
-1.22563e-05
-1.35697e-06
2.06832e-06
1.29821e-05
-1.3671e-05
-1.00699e-06
1.69595e-06
1.43026e-05
-1.49176e-05
-6.89088e-07
1.30411e-06
1.55355e-05
-1.61231e-05
-2.12692e-07
8.00319e-07
1.65693e-05
-1.68261e-05
2.03027e-07
5.3761e-08
1.70654e-05
-1.7376e-05
1.31311e-06
-1.00244e-06
1.76334e-05
-1.75279e-05
2.09549e-06
-2.20099e-06
1.68451e-05
-1.60993e-05
3.55446e-06
-4.30027e-06
1.50902e-05
-1.37582e-05
5.43478e-06
-6.76677e-06
1.26264e-05
-1.12784e-05
8.56201e-06
-9.91005e-06
8.78825e-06
-5.50579e-06
1.01638e-05
-1.34463e-05
2.64629e-06
-9.11587e-10
1.57745e-05
-1.84199e-05
-3.12324e-06
6.79555e-06
1.27732e-05
-1.64455e-05
-2.39577e-05
2.60864e-05
-2.12872e-06
2.5662e-06
-2.20121e-06
-5.42287e-06
5.05788e-06
1.75154e-06
-1.5518e-06
-9.70696e-06
9.50723e-06
1.56977e-06
-1.71248e-06
-8.93379e-06
9.07649e-06
2.02358e-06
-2.47564e-06
-7.19332e-06
7.64538e-06
3.07166e-06
-3.78847e-06
-5.72284e-06
6.43966e-06
4.6029e-06
-5.48778e-06
-4.58344e-06
5.46832e-06
6.41916e-06
-7.37828e-06
-3.79395e-06
4.75308e-06
8.34339e-06
-9.30355e-06
-3.31759e-06
4.27775e-06
1.02281e-05
-1.10995e-05
-3.11479e-06
3.98615e-06
1.19316e-05
-1.2749e-05
-2.85054e-06
3.66788e-06
1.35584e-05
-1.43493e-05
-2.44233e-06
3.23317e-06
1.51106e-05
-1.58357e-05
-1.96513e-06
2.6903e-06
1.6514e-05
-1.71305e-05
-1.35345e-06
1.96993e-06
1.76787e-05
-1.81526e-05
-4.88376e-07
9.62271e-07
1.856e-05
-1.88975e-05
7.90629e-07
-4.53073e-07
1.91312e-05
-1.91994e-05
2.37432e-06
-2.30608e-06
1.90777e-05
-1.88239e-05
4.64772e-06
-4.90157e-06
1.83931e-05
-1.77101e-05
7.48033e-06
-8.16332e-06
1.66842e-05
-1.52427e-05
1.14689e-05
-1.29103e-05
1.38673e-05
-1.36705e-05
1.67622e-05
-1.6959e-05
1.37853e-05
-1.11259e-05
2.16344e-05
-2.42938e-05
5.05008e-06
2.39598e-06
2.01408e-05
-2.75868e-05
-2.83817e-05
3.07824e-05
-2.40074e-06
3.2251e-06
-3.03555e-06
-4.7928e-06
4.60325e-06
2.68641e-06
-2.57359e-06
-9.3548e-06
9.24199e-06
2.65959e-06
-2.86893e-06
-9.2563e-06
9.46564e-06
3.19672e-06
-3.63208e-06
-8.08498e-06
8.52034e-06
4.17127e-06
-4.80251e-06
-7.10517e-06
7.73642e-06
5.51178e-06
-6.28359e-06
-6.28768e-06
7.05949e-06
7.10518e-06
-7.96131e-06
-5.65141e-06
6.50754e-06
8.83824e-06
-9.72685e-06
-5.19423e-06
6.08283e-06
1.0613e-05
-1.14916e-05
-4.86073e-06
5.73938e-06
1.23608e-05
-1.32258e-05
-4.5109e-06
5.37588e-06
1.40884e-05
-1.49459e-05
-4.05688e-06
4.91435e-06
1.57918e-05
-1.66217e-05
-3.46538e-06
4.29526e-06
1.74292e-05
-1.82071e-05
-2.66102e-06
3.4389e-06
1.89505e-05
-1.96516e-05
-1.5453e-06
2.24646e-06
2.03051e-05
-2.08998e-05
4.28851e-09
5.90425e-07
2.14164e-05
-2.18331e-05
2.08488e-06
-1.66815e-06
2.21438e-05
-2.2339e-05
4.92195e-06
-4.72676e-06
2.23517e-05
-2.20712e-05
8.62972e-06
-8.91021e-06
2.16838e-05
-2.21887e-05
1.34896e-05
-1.29847e-05
2.45351e-05
-2.69725e-05
1.4193e-05
-1.17556e-05
2.57919e-05
-2.13771e-05
2.81335e-05
-3.25483e-05
1.62893e-05
-9.38935e-06
3.60542e-05
-4.29541e-05
-3.32022e-05
3.55247e-05
-2.3225e-06
3.45228e-06
-3.39559e-06
-4.48164e-06
4.42494e-06
3.14965e-06
-3.1219e-06
-9.16504e-06
9.1373e-06
3.2806e-06
-3.55206e-06
-9.70558e-06
9.97704e-06
3.91476e-06
-4.36208e-06
-8.95814e-06
9.40546e-06
4.88962e-06
-5.48879e-06
-8.34663e-06
8.9458e-06
6.15265e-06
-6.871e-06
-7.80016e-06
8.51851e-06
7.63562e-06
-8.43881e-06
-7.33141e-06
8.1346e-06
9.2723e-06
-1.0129e-05
-6.95135e-06
7.80809e-06
1.10031e-05
-1.18906e-05
-6.62156e-06
7.50906e-06
1.27911e-05
-1.3703e-05
-6.26413e-06
7.17594e-06
1.46274e-05
-1.55624e-05
-5.8092e-06
6.7442e-06
1.65081e-05
-1.7462e-05
-5.18547e-06
6.13938e-06
1.84219e-05
-1.93865e-05
-4.30901e-06
5.27355e-06
2.03494e-05
-2.13065e-05
-3.0738e-06
4.03094e-06
2.22523e-05
-2.31777e-05
-1.34289e-06
2.26822e-06
2.40695e-05
-2.49179e-05
1.04552e-06
-1.97119e-07
2.5704e-05
-2.63895e-05
4.29846e-06
-3.61297e-06
2.68957e-05
-2.71835e-05
8.95085e-06
-8.66304e-06
2.73373e-05
-2.72004e-05
1.23668e-05
-1.25037e-05
2.58923e-05
-2.29706e-05
1.23568e-05
-1.52785e-05
2.03243e-05
-1.92492e-05
3.51115e-05
-3.61867e-05
1.85781e-05
-1.75634e-05
4.72843e-05
-4.8299e-05
-3.76068e-05
3.92887e-05
-1.68191e-06
2.96975e-06
-3.08935e-06
-4.44636e-06
4.56597e-06
3.07766e-06
-3.21882e-06
-9.1828e-06
9.32396e-06
3.49717e-06
-3.85449e-06
-1.0287e-05
1.06443e-05
4.27724e-06
-4.76162e-06
-9.86858e-06
1.0353e-05
5.30578e-06
-5.90568e-06
-9.54273e-06
1.01426e-05
6.55763e-06
-7.25674e-06
-9.22437e-06
9.92348e-06
7.99897e-06
-8.78018e-06
-8.92413e-06
9.70534e-06
9.59647e-06
-1.04447e-05
-8.65854e-06
9.50672e-06
1.13218e-05
-1.22267e-05
-8.40482e-06
9.30975e-06
1.3159e-05
-1.41192e-05
-8.11213e-06
9.07229e-06
1.51087e-05
-1.61287e-05
-7.72212e-06
8.74212e-06
1.71805e-05
-1.82652e-05
-7.15943e-06
8.24415e-06
1.93848e-05
-2.05405e-05
-6.33222e-06
7.48798e-06
2.17327e-05
-2.29616e-05
-5.12286e-06
6.35173e-06
2.42269e-05
-2.55258e-05
-3.37587e-06
4.67468e-06
2.68531e-05
-2.82009e-05
-8.93135e-07
2.24093e-06
2.9563e-05
-3.09165e-05
2.61948e-06
-1.26596e-06
3.22586e-05
-3.35505e-05
7.92965e-06
-6.63776e-06
3.45244e-05
-3.45287e-05
1.30095e-05
-1.30052e-05
3.30025e-05
-3.05291e-05
1.875e-05
-2.12234e-05
2.88816e-05
-2.90823e-05
3.66401e-05
-3.64394e-05
3.09161e-05
-3.4632e-05
4.62606e-05
-4.25447e-05
-4.04469e-05
4.10886e-05
-6.41716e-07
1.84879e-06
-2.23674e-06
-4.8126e-06
5.20054e-06
2.60031e-06
-2.99265e-06
-9.58393e-06
9.97627e-06
3.42616e-06
-3.8869e-06
-1.10543e-05
1.1515e-05
4.38295e-06
-4.91645e-06
-1.08618e-05
1.13953e-05
5.49052e-06
-6.1055e-06
-1.07493e-05
1.13643e-05
6.76127e-06
-7.45731e-06
-1.06199e-05
1.1316e-05
8.19277e-06
-8.967e-06
-1.04816e-05
1.12559e-05
9.77845e-06
-1.06269e-05
-1.03547e-05
1.12032e-05
1.15124e-05
-1.24361e-05
-1.0224e-05
1.11477e-05
1.33988e-05
-1.44033e-05
-1.00556e-05
1.10601e-05
1.54527e-05
-1.65509e-05
-9.8024e-06
1.09006e-05
1.77019e-05
-1.89106e-05
-9.39278e-06
1.06015e-05
2.0182e-05
-2.15231e-05
-8.73814e-06
1.00793e-05
2.29398e-05
-2.4439e-05
-7.71779e-06
9.21694e-06
2.60278e-05