/*--------------------------------*- C++ -*----------------------------------*\
| =========                 |                                                 |
| \\      /  F ield         | OpenFOAM: The Open Source CFD Toolbox           |
|  \\    /   O peration     | Version:  v1912                                 |
|   \\  /    A nd           | Website:  www.openfoam.com                      |
|    \\/     M anipulation  |                                                 |
\*---------------------------------------------------------------------------*/
FoamFile
{
    version     2.0;
    format      ascii;
    class       volVectorField;
    location    "0.6";
    object      U;
}
// * * * * * * * * * * * * * * * * * * * * * * * * * * * * * * * * * * * * * //

dimensions      [0 1 -1 0 0 0 0];


internalField   nonuniform List<vector> 
9072
(
(-0.0253338 0.0223491 0)
(-0.0685306 0.0034412 0)
(-0.052715 -0.00384867 0)
(-0.0064502 -0.00641179 0)
(0.056257 -0.0072583 0)
(0.11108 -0.00460052 0)
(0.138514 -0.00120855 0)
(0.140492 0.00156738 0)
(0.125704 0.00277949 0)
(0.106502 0.00252997 0)
(0.0885183 0.00210403 0)
(0.0722738 0.00192484 0)
(0.0570008 0.00199753 0)
(0.040708 0.00265213 0)
(0.0183289 0.00467696 0)
(-0.0213371 0.00887767 0)
(-0.0934709 0.00868681 0)
(-0.148164 -0.00101903 0)
(-0.231578 0.0112582 0)
(-0.131786 -0.032913 0)
(0.010041 -0.00706758 0)
(-0.361929 0.0429779 0)
(-0.215876 -0.0398685 0)
(-0.0252322 0.0599801 0)
(-0.0658756 0.00705745 0)
(-0.0460798 -0.0206292 0)
(-0.00786624 -0.0321495 0)
(0.0519951 -0.0379775 0)
(0.108531 -0.0252577 0)
(0.137756 -0.00887928 0)
(0.143625 0.00208909 0)
(0.136747 0.00789388 0)
(0.123665 0.0101093 0)
(0.108134 0.0101279 0)
(0.0929635 0.00920907 0)
(0.0793755 0.00838726 0)
(0.0672428 0.00855416 0)
(0.0561751 0.0113683 0)
(0.0475474 0.0215523 0)
(0.0381836 0.0441399 0)
(-0.0278011 0.0549037 0)
(-0.149144 0.022818 0)
(-0.189719 -0.0759213 0)
(-0.238387 0.103564 0)
(-0.38136 0.0615991 0)
(-0.220809 -0.197147 0)
(-0.0195257 0.0904884 0)
(-0.0553811 0.00897337 0)
(-0.0466627 -0.0305728 0)
(-0.0384647 -0.0507899 0)
(0.0246076 -0.0695612 0)
(0.0900095 -0.0462642 0)
(0.120003 -0.0165264 0)
(0.12711 0.00258771 0)
(0.122671 0.0124605 0)
(0.112926 0.0163565 0)
(0.101212 0.0166888 0)
(0.0893203 0.0154019 0)
(0.0779522 0.0140636 0)
(0.0671564 0.013948 0)
(0.0567715 0.0165852 0)
(0.047508 0.0244968 0)
(0.0459405 0.0417265 0)
(0.0696215 0.0719104 0)
(0.0723368 0.0703177 0)
(-0.0353339 -0.00952986 0)
(-0.15812 0.128131 0)
(-0.121254 0.0448751 0)
(-0.0752985 -0.255513 0)
(-0.0121819 0.112749 0)
(-0.0415438 0.0110658 0)
(-0.0740735 -0.018719 0)
(-0.0973528 -0.0627474 0)
(-0.0224621 -0.113654 0)
(0.0684886 -0.0702664 0)
(0.0988323 -0.024054 0)
(0.106506 0.00178317 0)
(0.106225 0.0149323 0)
(0.101769 0.0203773 0)
(0.0949572 0.0213397 0)
(0.0867496 0.0202188 0)
(0.0777182 0.0188491 0)
(0.0684644 0.0185804 0)
(0.0597781 0.0208261 0)
(0.0531842 0.0273486 0)
(0.0520104 0.0393483 0)
(0.0630396 0.0543865 0)
(0.101136 0.0628347 0)
(0.0975311 0.0547545 0)
(0.00750164 0.110216 0)
(0.119585 0.0217217 0)
(0.0672814 -0.237848 0)
(-0.000504955 0.122881 0)
(-0.0237204 0.0199967 0)
(-0.0662848 0.00385179 0)
(-0.0667568 -0.0748748 0)
(-0.0110814 -0.162223 0)
(0.056852 -0.0984291 0)
(0.0838518 -0.0300277 0)
(0.0893411 -4.04926e-05 0)
(0.0926822 0.0150087 0)
(0.0933898 0.0219129 0)
(0.0910188 0.024002 0)
(0.0857901 0.0237565 0)
(0.0783206 0.0229114 0)
(0.0699384 0.0226494 0)
(0.0622694 0.0242497 0)
(0.0573108 0.0289653 0)
(0.0580101 0.0373031 0)
(0.0674038 0.0467285 0)
(0.0834308 0.0497032 0)
(0.10212 0.0565682 0)
(0.140229 0.101585 0)
(0.202739 0.0144683 0)
(0.138344 -0.178681 0)
(0.0163357 0.111152 0)
(0.0163576 0.0272962 0)
(0.0237465 0.00405277 0)
(0.0962794 -0.0954065 0)
(0.127282 -0.17196 0)
(0.0762894 -0.108258 0)
(0.0755537 -0.0337874 0)
(0.0804236 -0.00213236 0)
(0.0860885 0.0130905 0)
(0.0904123 0.0214424 0)
(0.0907333 0.0252581 0)
(0.0868262 0.0265743 0)
(0.0795459 0.0266914 0)
(0.0711534 0.0264575 0)
(0.0639523 0.0271896 0)
(0.0599908 0.0299218 0)
(0.0614657 0.0348994 0)
(0.0703136 0.0404088 0)
(0.0850406 0.0430202 0)
(0.0997251 0.0447758 0)
(0.146958 0.061948 0)
(0.217087 0.00902891 0)
(0.150202 -0.106556 0)
(0.0323988 0.0683586 0)
(0.0888139 0.0194788 0)
(0.156122 -0.0377084 0)
(0.324827 -0.134195 0)
(0.277709 -0.132588 0)
(0.114568 -0.0727884 0)
(0.0724844 -0.0330015 0)
(0.0764289 -0.00555175 0)
(0.0861579 0.00964228 0)
(0.0932513 0.0198969 0)
(0.0946717 0.026069 0)
(0.0907553 0.0295172 0)
(0.08232 0.0308558 0)
(0.0725915 0.0304202 0)
(0.0646308 0.0299041 0)
(0.0609609 0.0304601 0)
(0.0630322 0.0324479 0)
(0.0714913 0.0347392 0)
(0.085408 0.0356003 0)
(0.103461 0.0359709 0)
(0.129907 0.0339911 0)
(0.167261 0.00175686 0)
(0.125611 -0.046361 0)
(0.0364698 -0.00034584 0)
(0.1714 -0.0134791 0)
(0.37008 -0.129477 0)
(0.398456 -0.146478 0)
(0.207401 -0.0510015 0)
(0.126646 -0.0289752 0)
(0.106087 -0.0250277 0)
(0.095537 -0.00810328 0)
(0.0971739 0.00533832 0)
(0.0990355 0.0187897 0)
(0.0967378 0.0275314 0)
(0.0909347 0.0327363 0)
(0.0819288 0.0349938 0)
(0.0733087 0.0344761 0)
(0.0661793 0.0330618 0)
(0.0620262 0.0312308 0)
(0.0630738 0.0299268 0)
(0.0711235 0.0293411 0)
(0.0846874 0.0281758 0)
(0.102588 0.0259562 0)
(0.126408 0.0205456 0)
(0.144485 0.000878962 0)
(0.118116 -0.00825402 0)
(-0.456586 0.250235 0)
(-0.570749 -0.0203178 0)
(-0.61696 -0.0120675 0)
(-0.653819 -0.00933878 0)
(-0.584854 -0.0390091 0)
(0.12799 -0.107871 0)
(0.831472 -0.0591772 0)
(1.11806 0.0329769 0)
(0.662116 0.0350006 0)
(0.734884 -0.0154615 0)
(-1.42207 0.205835 0)
(-1.75575 0.00456776 0)
(-1.66169 0.000534729 0)
(-1.59629 0.00144039 0)
(-1.61804 0.00344507 0)
(-1.78603 0.0328186 0)
(-2.20287 0.0597007 0)
(-1.94074 -0.0941084 0)
(-0.253183 -0.189155 0)
(-0.834399 0.466214 0)
(-0.7389 -0.0820211 0)
(-0.465964 -0.00944387 0)
(-0.617582 0.00264454 0)
(-0.0944958 -0.292114 0)
(0.67948 -0.415492 0)
(1.05975 -0.230087 0)
(1.28997 -0.0115158 0)
(1.24683 0.109448 0)
(0.480478 0.695785 0)
(-2.33496 0.768185 0)
(-3.25029 -0.0356758 0)
(-3.04582 -0.0586341 0)
(-2.8687 -0.0172467 0)
(-2.77438 0.0419728 0)
(-2.90107 0.0794629 0)
(-3.02214 0.00883989 0)
(-2.15433 -0.622615 0)
(-0.759878 -0.836738 0)
(-1.31819 0.561993 0)
(-1.09579 0.138868 0)
(-0.542695 -0.181171 0)
(0.136684 -0.24056 0)
(0.845267 -0.603667 0)
(0.893512 -0.523988 0)
(1.1277 -0.344431 0)
(1.25241 -0.0157357 0)
(0.968992 0.234074 0)
(-0.504213 1.58937 0)
(-1.30187 1.44618 0)
(-2.00445 0.178627 0)
(-1.95899 0.138062 0)
(-2.29027 0.121222 0)
(-2.6447 -0.0138393 0)
(-2.68309 -0.0281993 0)
(-3.11579 -0.205435 0)
(-1.65765 -1.29485 0)
(-0.837041 -1.34918 0)
(-1.42443 0.625319 0)
(-0.756444 0.166991 0)
(0.466286 -0.326987 0)
(0.844673 -0.436403 0)
(0.935708 -0.600239 0)
(1.02104 -0.60121 0)
(1.14388 -0.414798 0)
(1.14478 0.0541798 0)
(0.262511 0.674143 0)
(-1.04631 2.17661 0)
(-0.244217 1.36741 0)
(-1.11304 0.442173 0)
(-1.44892 -0.0810195 0)
(-0.361673 -0.114346 0)
(0.642728 0.0845198 0)
(0.138185 0.197109 0)
(-0.676939 0.124855 0)
(-0.670672 -1.70497 0)
(-0.67505 -1.63476 0)
(-0.494501 0.78907 0)
(0.6373 0.0846571 0)
(0.79378 -0.415275 0)
(0.848155 -0.489678 0)
(0.956645 -0.630291 0)
(1.04295 -0.651771 0)
(0.881916 -0.413492 0)
(0.770766 0.224777 0)
(0.00921868 1.22937 0)
(-0.795655 2.17896 0)
(-0.21137 1.15678 0)
(-0.364526 0.734574 0)
(-0.687666 -0.234321 0)
(-0.00573103 -0.607468 0)
(0.546797 -0.207829 0)
(1.04388 0.585207 0)
(0.0500177 0.393348 0)
(-0.324903 -1.48781 0)
(-0.478337 -1.75273 0)
(0.0487963 0.524165 0)
(0.674607 -0.2441 0)
(0.687698 -0.416472 0)
(0.834335 -0.538491 0)
(0.957303 -0.675539 0)
(0.884428 -0.532405 0)
(0.580809 -0.433317 0)
(0.449023 0.46122 0)
(-0.00264081 1.53576 0)
(-0.253802 2.05364 0)
(0.186633 1.34742 0)
(-0.570488 0.860873 0)
(-0.713506 -0.262608 0)
(0.0983081 -0.924321 0)
(0.644075 -0.400352 0)
(0.894928 0.398797 0)
(0.815499 0.682371 0)
(-0.356314 -1.33852 0)
(-0.303682 -1.88684 0)
(0.225394 0.298095 0)
(0.500067 -0.266814 0)
(0.717035 -0.48935 0)
(0.827162 -0.588629 0)
(0.908194 -0.689686 0)
(0.486841 -0.266906 0)
(0.780072 -0.767435 0)
(0.237765 0.610422 0)
(-0.0505859 1.67542 0)
(-0.212399 1.89997 0)
(0.0542646 1.49648 0)
(-1.27181 1.16232 0)
(-0.607621 -0.677247 0)
(-0.292458 -1.23458 0)
(0.325136 -0.570199 0)
(0.771588 0.416962 0)
(0.451548 1.16294 0)
(-0.205463 -1.13545 0)
(-0.199377 -1.99821 0)
(0.284835 -0.149449 0)
(0.609987 -0.396361 0)
(0.733585 -0.536774 0)
(0.802588 -0.631578 0)
(0.741213 -0.645561 0)
(0.136344 -0.080019 0)
(0.330723 -0.81174 0)
(-0.00217191 0.721565 0)
(-0.35138 1.90414 0)
(-0.322355 1.80088 0)
(-0.902238 1.96121 0)
(-1.44036 1.12342 0)
(-0.608133 -0.94312 0)
(-0.565477 -1.30463 0)
(-0.149845 -0.849844 0)
(0.246641 0.347355 0)
(0.123406 1.44612 0)
(0.160777 -1.33372 0)
(-0.0797154 -1.88358 0)
(0.0474355 -0.148383 0)
(0.224254 -0.144391 0)
(0.101623 -0.115138 0)
(-0.16962 -0.0050163 0)
(-0.0292626 -0.0705397 0)
(0.0480802 -0.0512596 0)
(0.0874273 -0.0293888 0)
(0.124465 -0.0111966 0)
(0.147883 0.00846226 0)
(0.153734 0.0305009 0)
(0.14372 0.0430058 0)
(0.121722 0.0460352 0)
(0.0902884 0.0405714 0)
(0.0672949 0.0360454 0)
(0.0579092 0.0349701 0)
(0.0596314 0.0325488 0)
(0.0647165 0.0276368 0)
(0.0717685 0.0230785 0)
(0.0825726 0.018796 0)
(0.0987865 0.0139474 0)
(0.120016 0.0063149 0)
(0.143873 -0.0031535 0)
(0.178923 0.00583355 0)
(-0.0711552 -0.0499229 0)
(-0.365003 0.280771 0)
(-0.227575 -0.0405185 0)
(-0.634244 0.0476051 0)
(-0.986934 -0.0757154 0)
(-1.03905 -0.147276 0)
(-0.985046 -0.132875 0)
(-0.901875 -0.114129 0)
(-0.682846 -0.133868 0)
(-0.283947 -0.039877 0)
(-0.0594363 0.0164567 0)
(0.0351961 0.0567888 0)
(0.0908086 0.0615893 0)
(0.104244 0.0624377 0)
(0.0749876 0.0572993 0)
(0.0516987 0.0384762 0)
(0.0432039 0.0139204 0)
(0.0514615 0.00804225 0)
(0.0740809 0.00507004 0)
(0.0947019 -0.00165004 0)
(0.113235 -0.0143504 0)
(0.133663 -0.0286364 0)
(0.16401 -0.0435818 0)
(-0.0586047 0.119485 0)
(-0.15058 0.219455 0)
(-0.210646 0.10912 0)
(-0.180232 0.382211 0)
(-0.0878135 -0.0156904 0)
(-0.0941151 -0.131457 0)
(-0.127471 -0.136991 0)
(-0.172165 -0.0976919 0)
(-0.261131 -0.0793483 0)
(-0.376235 -0.0863121 0)
(-0.465973 -0.181944 0)
(-0.59138 -0.268765 0)
(-0.559051 -0.090087 0)
(-0.225875 0.00965803 0)
(-0.090397 0.02924 0)
(0.0132815 0.0612257 0)
(0.062382 0.0329338 0)
(0.0411947 0.00256833 0)
(0.0264511 -0.0215682 0)
(0.0333601 -0.0316243 0)
(0.0692533 -0.0409602 0)
(0.102891 -0.0524511 0)
(0.128755 -0.0721442 0)
(-0.0123246 0.16281 0)
(0.0558455 0.240703 0)
(0.0733091 0.104025 0)
(0.119532 0.16556 0)
(0.187796 -0.00956377 0)
(0.0909102 -0.0675184 0)
(0.013749 -0.0809257 0)
(-0.0255519 -0.0560525 0)
(-0.0415953 -0.0203636 0)
(-0.127619 -0.0389851 0)
(-0.225514 -0.107288 0)
(-0.220701 -0.103622 0)
(-0.20816 0.0518704 0)
(-0.302204 0.0372508 0)
(-0.448181 -0.163471 0)
(-0.660492 -0.130801 0)
(-0.46849 -0.10364 0)
(-0.277213 -0.0792513 0)
(-0.0630486 -0.017137 0)
(0.0479393 -0.0322216 0)
(0.0851195 -0.03966 0)
(0.0914756 -0.0645647 0)
(0.0940521 -0.0853507 0)
(-0.0106886 0.175856 0)
(0.0152821 0.131123 0)
(0.0656127 0.123469 0)
(0.0615355 0.108071 0)
(0.068024 0.039663 0)
(0.0285426 -0.00701627 0)
(-0.0170905 -0.0309925 0)
(-0.0539406 -0.0343732 0)
(-0.087447 -0.0386834 0)
(-0.0905287 -0.00540976 0)
(-0.0914422 -0.00613259 0)
(-0.126555 -0.0309194 0)
(-0.16975 -0.00351114 0)
(-0.219974 -0.0166976 0)
(-0.18195 -0.0387408 0)
(-0.113728 -0.0135833 0)
(-0.164984 0.111785 0)
(-0.322656 -0.0577838 0)
(-0.551892 -0.207942 0)
(-0.789829 -0.225111 0)
(-0.874069 -0.138151 0)
(-0.652207 -0.260522 0)
(-0.296611 -0.137299 0)
(-0.0134626 0.196781 0)
(-0.00209035 0.0880243 0)
(0.0216986 0.118025 0)
(0.0268726 0.0960456 0)
(0.0236033 0.0569063 0)
(0.00206419 0.0253424 0)
(-0.0276684 0.00600103 0)
(-0.0572308 -0.00297126 0)
(-0.0864099 -0.00796458 0)
(-0.110557 0.0022682 0)
(-0.113137 0.00467997 0)
(-0.128712 0.00041047 0)
(-0.147165 0.00111275 0)
(-0.169585 -0.00805798 0)
(-0.174745 -0.016975 0)
(-0.167243 -0.0182921 0)
(-0.205831 -0.0125086 0)
(-0.15849 -0.0615492 0)
(-0.130942 -0.100085 0)
(-0.0991527 -0.0733567 0)
(-0.0125731 0.0714954 0)
(-0.0670307 -0.0648247 0)
(-0.28832 -0.251402 0)
(-0.0158013 0.228247 0)
(-0.0174027 0.0673496 0)
(-0.00208957 0.109232 0)
(0.00050278 0.0948456 0)
(-0.00512561 0.069565 0)
(-0.0203703 0.0483642 0)
(-0.0420098 0.0332378 0)
(-0.0660466 0.0239007 0)
(-0.0902479 0.0191898 0)
(-0.112168 0.0195148 0)
(-0.12747 0.0182976 0)
(-0.143204 0.0146139 0)
(-0.15684 0.0110895 0)
(-0.17017 0.00505011 0)
(-0.179652 -0.00330668 0)
(-0.184816 -0.0134939 0)
(-0.190024 -0.0264803 0)
(-0.177041 -0.05463 0)
(-0.155347 -0.0783325 0)
(-0.13022 -0.0949759 0)
(-0.0764604 -0.103508 0)
(-0.0149243 -0.179561 0)
(0.0547584 -0.19403 0)
(-0.0185693 0.269562 0)
(-0.0291465 0.0563891 0)
(-0.0178936 0.103577 0)
(-0.0175547 0.0970293 0)
(-0.0239517 0.079943 0)
(-0.0365927 0.0655844 0)
(-0.0539839 0.054292 0)
(-0.0739469 0.0462264 0)
(-0.094704 0.0410955 0)
(-0.114548 0.0382765 0)
(-0.132381 0.0351357 0)
(-0.149815 0.0305938 0)
(-0.166212 0.0250627 0)
(-0.180793 0.0177471 0)
(-0.192553 0.00730031 0)
(-0.201329 -0.00706231 0)
(-0.206109 -0.0263324 0)
(-0.203877 -0.0543481 0)
(-0.194458 -0.0869224 0)
(-0.172425 -0.132429 0)
(-0.144528 -0.190162 0)
(-0.142927 -0.243896 0)
(-0.0169017 -0.253386 0)
(-0.0210356 0.318873 0)
(-0.0372853 0.0505411 0)
(-0.0281747 0.100204 0)
(-0.0295638 0.100864 0)
(-0.0364926 0.089486 0)
(-0.0480107 0.0800204 0)
(-0.0631898 0.0720256 0)
(-0.0807688 0.0656415 0)
(-0.0996037 0.060888 0)
(-0.118627 0.0571826 0)
(-0.137288 0.0533106 0)
(-0.155841 0.0483685 0)
(-0.174038 0.0417793 0)
(-0.191383 0.0327418 0)
(-0.207328 0.0201884 0)
(-0.22134 0.0028061 0)
(-0.23232 -0.0208027 0)
(-0.238963 -0.0528995 0)
(-0.239113 -0.0956667 0)
(-0.230633 -0.146232 0)
(-0.28342 -0.135585 0)
(-0.253164 -0.335579 0)
(-0.145801 -0.435578 0)
(-0.0216827 0.370891 0)
(-0.040149 0.0476699 0)
(-0.0334835 0.0984889 0)
(-0.0365524 0.10604 0)
(-0.0442984 0.0989739 0)
(-0.0555911 0.0932334 0)
(-0.0698026 0.088014 0)
(-0.0862016 0.0834335 0)
(-0.104077 0.0796184 0)
(-0.122834 0.0762051 0)
(-0.142157 0.0724722 0)
(-0.162009 0.0676506 0)
(-0.182322 0.0609823 0)
(-0.202947 0.0515086 0)
(-0.223611 0.0380532 0)
(-0.24387 0.0190854 0)
(-0.262949 -0.00726013 0)
(-0.279699 -0.0434051 0)
(-0.290105 -0.0961195 0)
(-0.29412 -0.132086 0)
(-0.264781 -0.143906 0)
(-0.208374 -0.382706 0)
(-0.192836 -0.524345 0)
(-0.0170101 0.416105 0)
(-0.0345715 0.0482153 0)
(-0.0335998 0.0995166 0)
(-0.039358 0.112792 0)
(-0.0484325 0.109015 0)
(-0.0600916 0.106149 0)
(-0.0740677 0.10327 0)
(-0.0899872 0.100483 0)
(-0.107501 0.0979755 0)
(-0.126327 0.0955325 0)
(-0.146344 0.0926696 0)
(-0.167594 0.0887437 0)
(-0.190186 0.0829734 0)
(-0.214219 0.0743692 0)
(-0.239807 0.0616225 0)
(-0.266923 0.0430271 0)
(-0.295328 0.0163295 0)
(-0.32443 -0.0217484 0)
(-0.352711 -0.0798025 0)
(-0.374917 -0.141977 0)
(-0.338266 -0.219213 0)
(-0.305847 -0.395674 0)
(-0.351151 -0.482872 0)
(-0.00413805 0.441505 0)
(-0.0215025 0.0537707 0)
(-0.0297294 0.105284 0)
(-0.0392181 0.121652 0)
(-0.0498706 0.120018 0)
(-0.0621813 0.119263 0)
(-0.076249 0.118315 0)
(-0.0920316 0.117258 0)
(-0.109447 0.116278 0)
(-0.128458 0.115268 0)
(-0.149132 0.113884 0)
(-0.171669 0.111614 0)
(-0.196386 0.107748 0)
(-0.22369 0.101337 0)
(-0.254097 0.0910925 0)
(-0.288178 0.0752549 0)
(-0.326543 0.0513646 0)
(-0.369685 0.015875 0)
(-0.419194 -0.0386318 0)
(-0.475491 -0.118494 0)
(-0.518534 -0.227555 0)
(-0.57673 -0.364233 0)
(-0.676103 -0.378992 0)
(0.00114275 0.447731 0)
(-0.00959456 0.0649292 0)
(-0.0253353 0.11623 0)
(-0.0377061 0.132622 0)
(-0.0496001 0.132012 0)
(-0.0624547 0.132705 0)
(-0.0766312 0.13334 0)
(-0.0923162 0.133907 0)
(-0.109636 0.134592 0)
(-0.128742 0.135344 0)
(-0.14987 0.135946 0)
(-0.173389 0.136017 0)
(-0.199823 0.134992 0)
(-0.229874 0.132068 0)
(-0.264475 0.126125 0)
(-0.304815 0.115576 0)
(-0.352409 0.0981551 0)
(-0.40923 0.0706762 0)
(-0.478053 0.028003 0)
(-0.565795 -0.0398272 0)
(-0.677684 -0.132812 0)
(-0.829299 -0.234543 0)
(-1.01177 -0.270399 0)
(-0.00323633 0.453424 0)
(-0.00582905 0.0781539 0)
(-0.0228109 0.130046 0)
(-0.036015 0.14479 0)
(-0.0483837 0.144594 0)
(-0.0613863 0.146304 0)
(-0.0754409 0.148258 0)
(-0.0908538 0.150361 0)
(-0.107882 0.152782 0)
(-0.126809 0.15553 0)
(-0.148005 0.1585 0)
(-0.171978 0.161467 0)
(-0.19943 0.164063 0)
(-0.231312 0.165739 0)
(-0.26891 0.165688 0)
(-0.313944 0.162724 0)
(-0.36868 0.155117 0)
(-0.436178 0.140399 0)
(-0.520423 0.115318 0)
(-0.627999 0.074666 0)
(-0.769634 0.0174265 0)
(-0.94806 -0.034125 0)
(-1.17427 -0.0710216 0)
(-0.00467631 0.462219 0)
(-0.0060056 0.0907684 0)
(-0.0217954 0.144166 0)
(-0.0344598 0.157092 0)
(-0.0465595 0.157181 0)
(-0.0592326 0.159699 0)
(-0.0728216 0.162804 0)
(-0.0876587 0.166365 0)
(-0.104067 0.170546 0)
(-0.122406 0.175419 0)
(-0.143127 0.180998 0)
(-0.166834 0.187235 0)
(-0.194347 0.194004 0)
(-0.226786 0.201082 0)
(-0.265682 0.208095 0)
(-0.313113 0.21443 0)
(-0.371882 0.219116 0)
(-0.44576 0.220679 0)
(-0.539584 0.216979 0)
(-0.659267 0.205357 0)
(-0.811671 0.183081 0)
(-0.994061 0.155644 0)
(-1.18102 0.131195 0)
(-0.00432178 0.471284 0)
(-0.00727976 0.102489 0)
(-0.0213178 0.157289 0)
(-0.032821 0.168775 0)
(-0.0441429 0.169242 0)
(-0.0560695 0.172497 0)
(-0.068839 0.176647 0)
(-0.0827605 0.181579 0)
(-0.0981631 0.18748 0)
(-0.115432 0.194491 0)
(-0.135044 0.202752 0)
(-0.157636 0.212402 0)
(-0.184071 0.223585 0)
(-0.215528 0.236448 0)
(-0.253637 0.251126 0)
(-0.300644 0.267697 0)
(-0.359656 0.286116 0)
(-0.43496 0.306082 0)
(-0.532221 0.326668 0)
(-0.658534 0.345837 0)
(-0.820999 0.358966 0)
(-1.02197 0.354466 0)
(-1.2411 0.314569 0)
(-0.0040446 0.480627 0)
(-0.00887082 0.113544 0)
(-0.0207321 0.168899 0)
(-0.0308122 0.179426 0)
(-0.041054 0.180389 0)
(-0.0519232 0.184352 0)
(-0.0635683 0.189456 0)
(-0.0762479 0.195646 0)
(-0.0902588 0.203149 0)
(-0.105963 0.212179 0)
(-0.12381 0.223001 0)
(-0.144402 0.235943 0)
(-0.16855 0.251417 0)
(-0.197366 0.269945 0)
(-0.232403 0.292194 0)
(-0.275843 0.319008 0)
(-0.330795 0.351429 0)
(-0.40177 0.390653 0)
(-0.495318 0.437693 0)
(-0.620919 0.492443 0)
(-0.791872 0.55053 0)
(-1.02363 0.592809 0)
(-1.32593 0.570304 0)
(-0.00377523 0.490451 0)
(-0.0102434 0.12353 0)
(-0.019639 0.178754 0)
(-0.0282459 0.188849 0)
(-0.0372573 0.190375 0)
(-0.0468617 0.194997 0)
(-0.0571391 0.200944 0)
(-0.0682893 0.208231 0)
(-0.0805537 0.217129 0)
(-0.0942336 0.227929 0)
(-0.109708 0.241004 0)
(-0.127474 0.256845 0)
(-0.148201 0.2761 0)
(-0.172795 0.299627 0)
(-0.202534 0.32859 0)
(-0.239237 0.364574 0)
(-0.285572 0.409763 0)
(-0.345629 0.467176 0)
(-0.425927 0.540807 0)
(-0.537505 0.63553 0)
(-0.700729 0.755167 0)
(-0.954079 0.891288 0)
(-1.38407 0.994446 0)
(-0.00351408 0.500629 0)
(-0.010967 0.131822 0)
(-0.0178199 0.186812 0)
(-0.025054 0.197005 0)
(-0.0327861 0.199063 0)
(-0.0409923 0.204243 0)
(-0.0497185 0.210876 0)
(-0.0591036 0.21904 0)
(-0.0693239 0.229049 0)
(-0.0805972 0.241252 0)
(-0.0931967 0.256106 0)
(-0.107465 0.274218 0)
(-0.123849 0.296401 0)
(-0.142934 0.323759 0)
(-0.165533 0.357824 0)
(-0.192789 0.400756 0)
(-0.226387 0.455679 0)
(-0.268956 0.527273 0)
(-0.32491 0.622725 0)
(-0.402473 0.753666 0)
(-0.518967 0.939632 0)
(-0.716376 1.214 0)
(-1.13057 1.6479 0)
(-0.00322709 0.510869 0)
(-0.0107607 0.137907 0)
(-0.0152464 0.193228 0)
(-0.0213062 0.203948 0)
(-0.0277467 0.206378 0)
(-0.0344642 0.211956 0)
(-0.0415054 0.219069 0)
(-0.0489565 0.227841 0)
(-0.0569212 0.238615 0)
(-0.0655219 0.251774 0)
(-0.0749007 0.267816 0)
(-0.0852216 0.287401 0)
(-0.0966599 0.311415 0)
(-0.109417 0.341065 0)
(-0.123728 0.378049 0)
(-0.139847 0.424763 0)
(-0.158065 0.484728 0)
(-0.178683 0.563347 0)
(-0.201963 0.669301 0)
(-0.228016 0.817646 0)
(-0.256109 1.03696 0)
(-0.284351 1.38858 0)
(-0.266225 2.04571 0)
(-0.00287425 0.520704 0)
(-0.00943965 0.141549 0)
(-0.012213 0.198313 0)
(-0.017242 0.209729 0)
(-0.0223468 0.212265 0)
(-0.0275067 0.218037 0)
(-0.0327791 0.225403 0)
(-0.0382015 0.23449 0)
(-0.0438043 0.24565 0)
(-0.0496076 0.25927 0)
(-0.0556129 0.275846 0)
(-0.0617932 0.296022 0)
(-0.0680601 0.32066 0)
(-0.0742326 0.35092 0)
(-0.0799716 0.388408 0)
(-0.0846594 0.435351 0)
(-0.0871911 0.494943 0)
(-0.0855154 0.571932 0)
(-0.075707 0.673586 0)
(-0.049787 0.811481 0)
(0.00982752 1.0052 0)
(0.147385 1.28581 0)
(0.483125 1.72171 0)
(-0.00244918 0.529402 0)
(-0.00715898 0.143098 0)
(-0.0092389 0.20241 0)
(-0.0131839 0.214277 0)
(-0.0168587 0.216657 0)
(-0.0204195 0.222431 0)
(-0.0238935 0.229819 0)
(-0.0272705 0.238933 0)
(-0.030508 0.250101 0)
(-0.0335266 0.263685 0)
(-0.036196 0.280136 0)
(-0.0383136 0.300033 0)
(-0.0395652 0.324124 0)
(-0.0394511 0.353395 0)
(-0.0371903 0.389151 0)
(-0.0315084 0.433114 0)
(-0.0203751 0.48756 0)
(-0.000272184 0.555575 0)
(0.0347766 0.641098 0)
(0.0954394 0.748933 0)
(0.201729 0.882748 0)
(0.389088 1.03846 0)
(0.714917 1.18402 0)
(-0.00199584 0.536157 0)
(-0.00447061 0.143511 0)
(-0.00669703 0.205749 0)
(-0.00936188 0.217414 0)
(-0.0115193 0.219511 0)
(-0.0134814 0.225127 0)
(-0.015188 0.232325 0)
(-0.0165751 0.241195 0)
(-0.0175338 0.252023 0)
(-0.017899 0.265112 0)
(-0.017434 0.280842 0)
(-0.0157977 0.299682 0)
(-0.0125158 0.322228 0)
(-0.00686589 0.349178 0)
(0.00215377 0.381463 0)
(0.0162021 0.420111 0)
(0.0375505 0.466358 0)
(0.0700896 0.521414 0)
(0.119567 0.586057 0)
(0.194963 0.659518 0)
(0.309704 0.736812 0)
(0.481372 0.802899 0)
(0.726678 0.823093 0)
(-0.00164281 0.54058 0)
(-0.00213294 0.143748 0)
(-0.00468967 0.208344 0)
(-0.00586303 0.218987 0)
(-0.0064968 0.220823 0)
(-0.00691921 0.226171 0)
(-0.00695462 0.233 0)
(-0.00648281 0.241391 0)
(-0.00533891 0.251572 0)
(-0.00329032 0.263774 0)
(-2.38515e-05 0.278286 0)
(0.00487052 0.295456 0)
(0.0119929 0.315682 0)
(0.0221238 0.339434 0)
(0.0363841 0.367152 0)
(0.0563714 0.399309 0)
(0.0843279 0.436125 0)
(0.123472 0.477397 0)
(0.178237 0.521874 0)
(0.254513 0.566183 0)
(0.359312 0.603 0)
(0.498824 0.618308 0)
(0.673171 0.588721 0)
(-0.00128506 0.542792 0)
(-0.000722451 0.144288 0)
(-0.00317343 0.209954 0)
(-0.00271453 0.21898 0)
(-0.00192216 0.220669 0)
(-0.00092974 0.22567 0)
(0.000542569 0.231991 0)
(0.00266626 0.23971 0)
(0.00564718 0.248993 0)
(0.00976352 0.260006 0)
(0.0153787 0.272943 0)
(0.0229453 0.288022 0)
(0.0330721 0.305464 0)
(0.0465565 0.325475 0)
(0.0644492 0.348175 0)
(0.0881539 0.373508 0)
(0.119503 0.401072 0)
(0.160853 0.429835 0)
(0.215056 0.457656 0)
(0.285239 0.480569 0)
(0.374015 0.491847 0)
(0.481699 0.481164 0)
(0.603251 0.434873 0)
(-0.000463628 0.542733 0)
(-0.000392823 0.145259 0)
(-0.00200115 0.210267 0)
(6.33803e-05 0.217502 0)
(0.00213133 0.219193 0)
(0.00435571 0.223801 0)
(0.00711767 0.229518 0)
(0.0106181 0.23643 0)
(0.0151035 0.244643 0)
(0.0208788 0.254256 0)
(0.0283182 0.265379 0)
(0.037882 0.278113 0)
(0.0501517 0.292533 0)
(0.0658516 0.308639 0)
(0.0858997 0.326303 0)
(0.111417 0.345158 0)
(0.143746 0.364458 0)
(0.184417 0.382856 0)
(0.234975 0.398091 0)
(0.296622 0.406624 0)
(0.369482 0.403295 0)
(0.451359 0.381331 0)
(0.536238 0.333336 0)
(0.000389377 0.540467 0)
(-0.000600815 0.146484 0)
(-0.000938397 0.209171 0)
(0.00250784 0.214837 0)
(0.00567303 0.216604 0)
(0.00890241 0.220789 0)
(0.0126905 0.22585 0)
(0.0172622 0.231868 0)
(0.0228899 0.238903 0)
(0.0298847 0.246997 0)
(0.0386123 0.256187 0)
(0.0495065 0.266489 0)
(0.0630924 0.277856 0)
(0.0799924 0.290155 0)
(0.100942 0.303097 0)
(0.126785 0.316165 0)
(0.158415 0.328498 0)
(0.196701 0.338763 0)
(0.242283 0.344984 0)
(0.295224 0.344413 0)
(0.354489 0.333505 0)
(0.417175 0.308213 0)
(0.477844 0.264964 0)
(0.00166909 0.536253 0)
(-0.00123958 0.147592 0)
(0.000187103 0.20686 0)
(0.00482337 0.211267 0)
(0.00877179 0.213135 0)
(0.0127447 0.216894 0)
(0.0172699 0.221278 0)
(0.0226007 0.226363 0)
(0.0290115 0.232171 0)
(0.0368054 0.238706 0)
(0.0463228 0.245953 0)
(0.0579562 0.253856 0)
(0.0721547 0.262296 0)
(0.0894266 0.271051 0)
(0.110336 0.279761 0)
(0.135465 0.287869 0)
(0.165352 0.294555 0)
(0.200397 0.298664 0)
(0.240678 0.298648 0)
(0.285707 0.292567 0)
(0.334074 0.278203 0)
(0.38303 0.253411 0)
(0.428235 0.216891 0)
(0.00336393 0.529144 0)
(-0.00167466 0.148276 0)
(0.00183637 0.203371 0)
(0.00716002 0.207051 0)
(0.0115284 0.209052 0)
(0.015965 0.212396 0)
(0.0209508 0.216102 0)
(0.0267437 0.220242 0)
(0.0336138 0.224819 0)
(0.0418444 0.229812 0)
(0.0517421 0.235172 0)
(0.0636471 0.240797 0)
(0.0779343 0.246521 0)
(0.0949986 0.252084 0)
(0.115248 0.257115 0)
(0.139055 0.261094 0)
(0.166698 0.263313 0)
(0.198287 0.262856 0)
(0.233618 0.258598 0)
(0.27201 0.249273 0)
(0.312105 0.233636 0)
(0.35165 0.210775 0)
(0.387475 0.180663 0)
(0.0051813 0.517644 0)
(-0.000661359 0.14845 0)
(0.00428571 0.199001 0)
(0.00963082 0.202512 0)
(0.0140782 0.204644 0)
(0.0187051 0.20757 0)
(0.0238944 0.210594 0)
(0.0298976 0.213789 0)
(0.0369655 0.217156 0)
(0.0453537 0.220657 0)
(0.0553305 0.224222 0)
(0.0671831 0.227726 0)
(0.0812121 0.230981 0)
(0.0977144 0.233727 0)
(0.116971 0.235616 0)
(0.139206 0.2362 0)
(0.164544 0.234907 0)
(0.192946 0.231044 0)
(0.224113 0.223845 0)
(0.257377 0.212551 0)
(0.291613 0.196576 0)
(0.325155 0.17574 0)
(0.355863 0.150629 0)
(0.00689938 0.500329 0)
(0.00272656 0.148747 0)
(0.00748305 0.194333 0)
(0.0122593 0.198038 0)
(0.0165133 0.200201 0)
(0.0210762 0.202668 0)
(0.026252 0.204985 0)
(0.0322628 0.207235 0)
(0.0393273 0.209416 0)
(0.0476668 0.211489 0)
(0.0575077 0.213368 0)
(0.0690849 0.21492 0)
(0.0826321 0.215957 0)
(0.0983693 0.216235 0)
(0.11649 0.215449 0)
(0.137128 0.213223 0)
(0.160327 0.209109 0)
(0.185995 0.202609 0)
(0.213835 0.193228 0)
(0.243296 0.180565 0)
(0.273542 0.164429 0)
(0.303456 0.145023 0)
(0.331724 0.12318 0)
(0.00828697 0.476569 0)
(0.00840222 0.150058 0)
(0.0111001 0.190269 0)
(0.0150002 0.193996 0)
(0.0188131 0.195988 0)
(0.0231058 0.197901 0)
(0.0280961 0.199461 0)
(0.0339569 0.200754 0)
(0.0408623 0.20178 0)
(0.0489919 0.202491 0)
(0.0585289 0.202799 0)
(0.06966 0.20257 0)
(0.0825637 0.201625 0)
(0.0974017 0.199743 0)
(0.11431 0.19666 0)
(0.133372 0.192066 0)
(0.154589 0.185621 0)
(0.177866 0.176974 0)
(0.202962 0.165825 0)
(0.229478 0.151987 0)
(0.256871 0.135484 0)
(0.284473 0.116679 0)
(0.3116 0.0964292 0)
(0.00930781 0.447009 0)
(0.0150076 0.152749 0)
(0.0147027 0.18745 0)
(0.0176166 0.190646 0)
(0.020824 0.192199 0)
(0.0247087 0.193424 0)
(0.0293879 0.194164 0)
(0.0349691 0.19449 0)
(0.0415764 0.194393 0)
(0.0493445 0.193821 0)
(0.0584129 0.192681 0)
(0.0689243 0.190843 0)
(0.0810149 0.188138 0)
(0.0948022 0.184368 0)
(0.110382 0.179305 0)
(0.127809 0.172697 0)
(0.147076 0.16428 0)
(0.168112 0.15381 0)
(0.19076 0.1411 0)
(0.214782 0.126078 0)
(0.239889 0.108854 0)
(0.265784 0.0898109 0)
(0.29224 0.0696912 0)
(0.010204 0.413332 0)
(0.0205942 0.156657 0)
(0.0176992 0.186026 0)
(0.0196826 0.188089 0)
(0.0222398 0.188936 0)
(0.0256414 0.189344 0)
(0.0299084 0.189213 0)
(0.0350845 0.188577 0)
(0.0412452 0.18741 0)
(0.0484839 0.18565 0)
(0.056902 0.183198 0)
(0.0666085 0.179927 0)
(0.077703 0.175675 0)
(0.0902755 0.170266 0)
(0.104399 0.163498 0)
(0.120119 0.155159 0)
(0.137441 0.145038 0)
(0.156337 0.132948 0)
(0.176736 0.118762 0)
(0.198537 0.10245 0)
(0.221653 0.0841166 0)
(0.246055 0.0640767 0)
(0.271843 0.0428782 0)
(0.0110538 0.377775 0)
(0.0236989 0.161426 0)
(0.0194909 0.185738 0)
(0.0207543 0.186268 0)
(0.0227293 0.18622 0)
(0.0256268 0.185734 0)
(0.0294074 0.184715 0)
(0.0340703 0.18315 0)
(0.0396555 0.180987 0)
(0.0462241 0.178146 0)
(0.0538504 0.174522 0)
(0.0626132 0.169986 0)
(0.0725937 0.164386 0)
(0.0838613 0.157553 0)
(0.0964778 0.149305 0)
(0.110489 0.139454 0)
(0.12592 0.127818 0)
(0.142777 0.11424 0)
(0.161055 0.0986106 0)
(0.180751 0.0808948 0)
(0.201901 0.0611499 0)
(0.224631 0.0395559 0)
(0.249206 0.0164338 0)
(0.011385 0.34241 0)
(0.0240025 0.166582 0)
(0.0197589 0.185974 0)
(0.0206346 0.184999 0)
(0.0221747 0.184 0)
(0.0246043 0.182618 0)
(0.0278763 0.180741 0)
(0.0319725 0.178305 0)
(0.0369118 0.175229 0)
(0.0427344 0.171418 0)
(0.0494931 0.166757 0)
(0.0572479 0.161113 0)
(0.0660595 0.154337 0)
(0.0759836 0.146267 0)
(0.0870744 0.136732 0)
(0.0993751 0.125553 0)
(0.112917 0.112567 0)
(0.127729 0.0976239 0)
(0.143834 0.0806127 0)
(0.161277 0.0614725 0)
(0.180147 0.0401942 0)
(0.20061 0.0168434 0)
(0.222989 -0.00849067 0)
(0.011231 0.308867 0)
(0.0220207 0.171759 0)
(0.0186852 0.186179 0)
(0.0194323 0.184057 0)
(0.0206888 0.18218 0)
(0.0227163 0.179974 0)
(0.0254969 0.177308 0)
(0.029013 0.17408 0)
(0.0332741 0.170189 0)
(0.0383066 0.165523 0)
(0.0441457 0.159959 0)
(0.0508332 0.15336 0)
(0.0584121 0.145577 0)
(0.0669227 0.136453 0)
(0.0764053 0.125818 0)
(0.0868939 0.113508 0)
(0.0984173 0.0993596 0)
(0.11101 0.0832245 0)
(0.12472 0.0649766 0)
(0.139629 0.0445187 0)
(0.155884 0.0217738 0)
(0.173733 -0.00334129 0)
(0.193536 -0.0309365 0)
(0.0107521 0.278249 0)
(0.0187029 0.176613 0)
(0.0166365 0.186111 0)
(0.0173651 0.183273 0)
(0.0184182 0.180668 0)
(0.0200856 0.177758 0)
(0.0223826 0.174406 0)
(0.0252994 0.170493 0)
(0.0288431 0.165902 0)
(0.0330248 0.160512 0)
(0.0378682 0.154192 0)
(0.0433977 0.146803 0)
(0.049641 0.138196 0)
(0.0566256 0.128214 0)
(0.0643835 0.116691 0)
(0.0729496 0.103459 0)
(0.0823691 0.08835 0)
(0.0927091 0.0711957 0)
(0.104065 0.0518358 0)
(0.11657 0.0301221 0)
(0.130409 0.00589368 0)
(0.145792 -0.0209918 0)
(0.162981 -0.0507204 0)
(0.00998323 0.251223 0)
(0.0148661 0.180891 0)
(0.0139247 0.185864 0)
(0.0146044 0.182628 0)
(0.0154522 0.179462 0)
(0.0167547 0.175989 0)
(0.0185532 0.172077 0)
(0.0208439 0.167604 0)
(0.0236286 0.162446 0)
(0.0269166 0.156474 0)
(0.0307198 0.149555 0)
(0.0350555 0.141544 0)
(0.0399455 0.13229 0)
(0.0454186 0.121631 0)
(0.051509 0.109395 0)
(0.0582637 0.0954005 0)
(0.0657369 0.0794612 0)
(0.0740111 0.0613899 0)
(0.0831654 0.0410041 0)
(0.093313 0.0181175 0)
(0.104574 -0.00743409 0)
(0.117125 -0.0358592 0)
(0.131211 -0.0674015 0)
(0.00885881 0.228195 0)
(0.0110415 0.184434 0)
(0.0108095 0.185611 0)
(0.0113627 0.182119 0)
(0.0119805 0.17854 0)
(0.0129216 0.174636 0)
(0.0142362 0.170291 0)
(0.0159191 0.165385 0)
(0.0179697 0.15979 0)
(0.0203974 0.153382 0)