# vtk DataFile Version 2.0
gauge_1
ASCII
DATASET POLYDATA
POINTS 9 double
0.02 0.201142 0.005
0.02 0.207523 0.005
0.02 0.213904 0.005
0.02 0.220285 0.005
0.02 0.226666 0.005
0.02 0.233047 0.005
0.02 0.239428 0.005
0.02 0.245809 0.005
0.02 0.25219 0.005
POINT_DATA 9
 FIELD attributes 1
alpha.water 1 9 float
-2.0608e-22 -2.87136e-23 -2.6374e-24 1.51533e-25 1.85916e-25 8.10346e-26 3.04723e-26 9.93196e-27 2.73001e-27
