# vtk DataFile Version 2.0
gauge_2
ASCII
DATASET POLYDATA
POINTS 85 double
0.2 0.0329993 0.005
0.2 0.0359992 0.005
0.2 0.0389992 0.005
0.2 0.0419991 0.005
0.2 0.044999 0.005
0.2 0.047999 0.005
0.2 0.0543799 0.005
0.2 0.0607609 0.005
0.2 0.0671419 0.005
0.2 0.0735228 0.005
0.2 0.0799038 0.005
0.2 0.0862847 0.005
0.2 0.0926657 0.005
0.2 0.0990467 0.005
0.2 0.105428 0.005
0.2 0.111809 0.005
0.2 0.11819 0.005
0.2 0.124571 0.005
0.2 0.130952 0.005
0.2 0.137332 0.005
0.2 0.143713 0.005
0.2 0.150094 0.005
0.2 0.156475 0.005
0.2 0.162856 0.005
0.2 0.169237 0.005
0.2 0.175618 0.005
0.2 0.181999 0.005
0.2 0.18838 0.005
0.2 0.194761 0.005
0.2 0.201142 0.005
0.2 0.207523 0.005
0.2 0.213904 0.005
0.2 0.220285 0.005
0.2 0.226666 0.005
0.2 0.233047 0.005
0.2 0.239428 0.005
0.2 0.245809 0.005
0.2 0.25219 0.005
0.2 0.258571 0.005
0.2 0.264952 0.005
0.2 0.271333 0.005
0.2 0.277714 0.005
0.2 0.284095 0.005
0.2 0.290476 0.005
0.2 0.296857 0.005
0.2 0.303238 0.005
0.2 0.309619 0.005
0.2 0.315999 0.005
0.2 0.32238 0.005
0.2 0.328761 0.005
0.2 0.335142 0.005
0.2 0.341523 0.005
0.2 0.347904 0.005
0.2 0.354285 0.005
0.2 0.360666 0.005
0.2 0.367047 0.005
0.2 0.373428 0.005
0.2 0.379809 0.005
0.2 0.38619 0.005
0.2 0.392571 0.005
0.2 0.398952 0.005
0.2 0.405333 0.005
0.2 0.411714 0.005
0.2 0.418095 0.005
0.2 0.424476 0.005
0.2 0.430857 0.005
0.2 0.437238 0.005
0.2 0.443619 0.005
0.2 0.45 0.005
0.2 0.456381 0.005
0.2 0.462762 0.005
0.2 0.469143 0.005
0.2 0.475524 0.005
0.2 0.481905 0.005
0.2 0.488286 0.005
0.2 0.494666 0.005
0.2 0.501047 0.005
0.2 0.507428 0.005
0.2 0.513809 0.005
0.2 0.52019 0.005
0.2 0.526571 0.005
0.2 0.532952 0.005
0.2 0.539333 0.005
0.2 0.545714 0.005
0.2 0.552095 0.005
POINT_DATA 85
 FIELD attributes 1
alpha.water 1 85 float
1 1 1 0.99833 0.979303 0.960813 0.795238 0.387741 0.354089 0.7077 0.84497 0.491037 0.071648 0.000230223 0.000210607 0.000208489 0.0006472 0.0141735 0.0803691 0.13648 0.130243 0.0637506 0.00336821 0.000343564 0.00118705 0.00701975 0.0134264 0.00764143 0.000278202 6.05768e-06 0.000210503 0.000416155 0.00205422 0.00379723 0.00399284 0.0040351 0.00304152 0.00112023 9.76228e-05 2.51863e-05 2.72151e-07 2.47148e-10 2.52067e-10 1.6498e-10 3.71342e-11 1.42989e-11 1.013e-11 9.04376e-12 1.17521e-11 5.28964e-11 6.79912e-10 1.38918e-06 3.3674e-05 3.78656e-05 6.06452e-06 1.13514e-06 0.000274606 0.00330076 0.00632237 0.00515846 0.00194612 8.32352e-05 -4.9241e-11 8.65155e-12 1.70955e-11 1.57531e-11 6.63878e-12 1.68595e-12 8.43502e-13 7.66267e-13 1.77144e-12 3.52779e-12 3.97101e-12 4.26601e-12 8.84968e-12 5.227e-11 1.80331e-10 3.67734e-10 3.71589e-10 2.18883e-10 1.12248e-10 3.60037e-11 4.44648e-12 9.89702e-14 1.25247e-15
