# vtk DataFile Version 2.0
gauge_2
ASCII
DATASET POLYDATA
POINTS 85 double
0.2 0.0329993 0.005
0.2 0.0359992 0.005
0.2 0.0389992 0.005
0.2 0.0419991 0.005
0.2 0.044999 0.005
0.2 0.047999 0.005
0.2 0.0543799 0.005
0.2 0.0607609 0.005
0.2 0.0671419 0.005
0.2 0.0735228 0.005
0.2 0.0799038 0.005
0.2 0.0862847 0.005
0.2 0.0926657 0.005
0.2 0.0990467 0.005
0.2 0.105428 0.005
0.2 0.111809 0.005
0.2 0.11819 0.005
0.2 0.124571 0.005
0.2 0.130952 0.005
0.2 0.137332 0.005
0.2 0.143713 0.005
0.2 0.150094 0.005
0.2 0.156475 0.005
0.2 0.162856 0.005
0.2 0.169237 0.005
0.2 0.175618 0.005
0.2 0.181999 0.005
0.2 0.18838 0.005
0.2 0.194761 0.005
0.2 0.201142 0.005
0.2 0.207523 0.005
0.2 0.213904 0.005
0.2 0.220285 0.005
0.2 0.226666 0.005
0.2 0.233047 0.005
0.2 0.239428 0.005
0.2 0.245809 0.005
0.2 0.25219 0.005
0.2 0.258571 0.005
0.2 0.264952 0.005
0.2 0.271333 0.005
0.2 0.277714 0.005
0.2 0.284095 0.005
0.2 0.290476 0.005
0.2 0.296857 0.005
0.2 0.303238 0.005
0.2 0.309619 0.005
0.2 0.315999 0.005
0.2 0.32238 0.005
0.2 0.328761 0.005
0.2 0.335142 0.005
0.2 0.341523 0.005
0.2 0.347904 0.005
0.2 0.354285 0.005
0.2 0.360666 0.005
0.2 0.367047 0.005
0.2 0.373428 0.005
0.2 0.379809 0.005
0.2 0.38619 0.005
0.2 0.392571 0.005
0.2 0.398952 0.005
0.2 0.405333 0.005
0.2 0.411714 0.005
0.2 0.418095 0.005
0.2 0.424476 0.005
0.2 0.430857 0.005
0.2 0.437238 0.005
0.2 0.443619 0.005
0.2 0.45 0.005
0.2 0.456381 0.005
0.2 0.462762 0.005
0.2 0.469143 0.005
0.2 0.475524 0.005
0.2 0.481905 0.005
0.2 0.488286 0.005
0.2 0.494666 0.005
0.2 0.501047 0.005
0.2 0.507428 0.005
0.2 0.513809 0.005
0.2 0.52019 0.005
0.2 0.526571 0.005
0.2 0.532952 0.005
0.2 0.539333 0.005
0.2 0.545714 0.005
0.2 0.552095 0.005
POINT_DATA 85
 FIELD attributes 1
alpha.water 1 85 float
1 1 1 1 1 1 1 1 1 1 0.999996 0.951309 0.539931 0.0886208 1.39592e-09 1.11871e-09 1.09786e-09 1.12556e-09 1.28794e-09 3.61871e-09 2.36907e-07 0.000131464 0.000408556 0.000553983 0.000419299 0.000190811 0.000102826 5.46571e-05 3.34772e-10 1.94648e-09 1.70312e-09 1.92592e-12 1.72209e-12 9.03557e-14 4.28351e-14 1.59881e-14 2.25186e-15 1.52809e-16 9.4914e-18 5.28546e-19 2.13093e-20 -2.12609e-20 -3.07133e-20 -1.03726e-20 -5.30935e-22 -1.53539e-22 -9.45073e-23 -7.53208e-23 -6.51034e-23 -5.4893e-23 -4.36792e-23 -3.27353e-23 -2.34345e-23 -1.65058e-23 -1.19392e-23 -9.21282e-24 -7.6255e-24 -6.56786e-24 -5.65408e-24 -4.72215e-24 -3.76197e-24 -2.83245e-24 -2.00208e-24 -1.31904e-24 -8.02463e-25 -4.45125e-25 -2.21263e-25 -9.62429e-26 -3.54583e-26 -1.06103e-26 -2.48896e-27 -5.02377e-28 -1.50549e-28 -8.61478e-29 -5.55772e-29 -3.09693e-29 -1.36459e-29 -4.45758e-30 -9.93343e-31 -1.31208e-31 -1.06914e-32 -5.05543e-34 -1.22015e-35 -2.90708e-37 -3.0476e-39
