# vtk DataFile Version 2.0
gauge_2
ASCII
DATASET POLYDATA
POINTS 85 double
0.2 0.0329993 0.005
0.2 0.0359992 0.005
0.2 0.0389992 0.005
0.2 0.0419991 0.005
0.2 0.044999 0.005
0.2 0.047999 0.005
0.2 0.0543799 0.005
0.2 0.0607609 0.005
0.2 0.0671419 0.005
0.2 0.0735228 0.005
0.2 0.0799038 0.005
0.2 0.0862847 0.005
0.2 0.0926657 0.005
0.2 0.0990467 0.005
0.2 0.105428 0.005
0.2 0.111809 0.005
0.2 0.11819 0.005
0.2 0.124571 0.005
0.2 0.130952 0.005
0.2 0.137332 0.005
0.2 0.143713 0.005
0.2 0.150094 0.005
0.2 0.156475 0.005
0.2 0.162856 0.005
0.2 0.169237 0.005
0.2 0.175618 0.005
0.2 0.181999 0.005
0.2 0.18838 0.005
0.2 0.194761 0.005
0.2 0.201142 0.005
0.2 0.207523 0.005
0.2 0.213904 0.005
0.2 0.220285 0.005
0.2 0.226666 0.005
0.2 0.233047 0.005
0.2 0.239428 0.005
0.2 0.245809 0.005
0.2 0.25219 0.005
0.2 0.258571 0.005
0.2 0.264952 0.005
0.2 0.271333 0.005
0.2 0.277714 0.005
0.2 0.284095 0.005
0.2 0.290476 0.005
0.2 0.296857 0.005
0.2 0.303238 0.005
0.2 0.309619 0.005
0.2 0.315999 0.005
0.2 0.32238 0.005
0.2 0.328761 0.005
0.2 0.335142 0.005
0.2 0.341523 0.005
0.2 0.347904 0.005
0.2 0.354285 0.005
0.2 0.360666 0.005
0.2 0.367047 0.005
0.2 0.373428 0.005
0.2 0.379809 0.005
0.2 0.38619 0.005
0.2 0.392571 0.005
0.2 0.398952 0.005
0.2 0.405333 0.005
0.2 0.411714 0.005
0.2 0.418095 0.005
0.2 0.424476 0.005
0.2 0.430857 0.005
0.2 0.437238 0.005
0.2 0.443619 0.005
0.2 0.45 0.005
0.2 0.456381 0.005
0.2 0.462762 0.005
0.2 0.469143 0.005
0.2 0.475524 0.005
0.2 0.481905 0.005
0.2 0.488286 0.005
0.2 0.494666 0.005
0.2 0.501047 0.005
0.2 0.507428 0.005
0.2 0.513809 0.005
0.2 0.52019 0.005
0.2 0.526571 0.005
0.2 0.532952 0.005
0.2 0.539333 0.005
0.2 0.545714 0.005
0.2 0.552095 0.005
POINT_DATA 85
 FIELD attributes 1
alpha.water 1 85 float
1 1 1 1 1 1 1 1 1 1 1 0.999977 0.93882 0.505315 0.0665054 0.000600494 0.0019436 0.00248485 0.0011992 0.000108141 1.07863e-05 1.29153e-07 2.63721e-08 2.56311e-08 2.3961e-08 8.48577e-09 6.57865e-09 2.2255e-09 2.19479e-10 4.50041e-11 5.25737e-11 3.14093e-11 9.58273e-13 4.11408e-13 3.25166e-14 2.82611e-15 1.82378e-16 1.14316e-17 7.34908e-19 4.10429e-20 2.45565e-21 2.39219e-22 2.7598e-23 2.79623e-24 2.26977e-25 -2.24537e-26 2.56665e-26 2.73431e-26 8.58707e-27 -3.31492e-27 -2.56714e-26 -1.34143e-25 -5.94669e-25 -2.06585e-24 -5.30933e-24 -9.02425e-24 -8.91496e-24 -3.87662e-24 -2.61918e-25 -1.85605e-27 1.5516e-32 3.97452e-35 -2.37017e-38 -2.37014e-38 1.23501e-41 1.26449e-41 1.19712e-46 -1.75202e-46 -1.4144e-49 -8.22942e-50 -2.52155e-52 -5.06433e-52 -7.9038e-52 -4.61288e-52 -3.2895e-53 -8.75002e-55 -1.54661e-56 -2.10729e-58 -2.09414e-60 -1.57011e-62 -8.82668e-65 -3.67727e-67 -1.08313e-69 -2.13107e-72 -2.50215e-75
