# vtk DataFile Version 2.0
gauge_2
ASCII
DATASET POLYDATA
POINTS 85 double
0.2 0.0329993 0.005
0.2 0.0359992 0.005
0.2 0.0389992 0.005
0.2 0.0419991 0.005
0.2 0.044999 0.005
0.2 0.047999 0.005
0.2 0.0543799 0.005
0.2 0.0607609 0.005
0.2 0.0671419 0.005
0.2 0.0735228 0.005
0.2 0.0799038 0.005
0.2 0.0862847 0.005
0.2 0.0926657 0.005
0.2 0.0990467 0.005
0.2 0.105428 0.005
0.2 0.111809 0.005
0.2 0.11819 0.005
0.2 0.124571 0.005
0.2 0.130952 0.005
0.2 0.137332 0.005
0.2 0.143713 0.005
0.2 0.150094 0.005
0.2 0.156475 0.005
0.2 0.162856 0.005
0.2 0.169237 0.005
0.2 0.175618 0.005
0.2 0.181999 0.005
0.2 0.18838 0.005
0.2 0.194761 0.005
0.2 0.201142 0.005
0.2 0.207523 0.005
0.2 0.213904 0.005
0.2 0.220285 0.005
0.2 0.226666 0.005
0.2 0.233047 0.005
0.2 0.239428 0.005
0.2 0.245809 0.005
0.2 0.25219 0.005
0.2 0.258571 0.005
0.2 0.264952 0.005
0.2 0.271333 0.005
0.2 0.277714 0.005
0.2 0.284095 0.005
0.2 0.290476 0.005
0.2 0.296857 0.005
0.2 0.303238 0.005
0.2 0.309619 0.005
0.2 0.315999 0.005
0.2 0.32238 0.005
0.2 0.328761 0.005
0.2 0.335142 0.005
0.2 0.341523 0.005
0.2 0.347904 0.005
0.2 0.354285 0.005
0.2 0.360666 0.005
0.2 0.367047 0.005
0.2 0.373428 0.005
0.2 0.379809 0.005
0.2 0.38619 0.005
0.2 0.392571 0.005
0.2 0.398952 0.005
0.2 0.405333 0.005
0.2 0.411714 0.005
0.2 0.418095 0.005
0.2 0.424476 0.005
0.2 0.430857 0.005
0.2 0.437238 0.005
0.2 0.443619 0.005
0.2 0.45 0.005
0.2 0.456381 0.005
0.2 0.462762 0.005
0.2 0.469143 0.005
0.2 0.475524 0.005
0.2 0.481905 0.005
0.2 0.488286 0.005
0.2 0.494666 0.005
0.2 0.501047 0.005
0.2 0.507428 0.005
0.2 0.513809 0.005
0.2 0.52019 0.005
0.2 0.526571 0.005
0.2 0.532952 0.005
0.2 0.539333 0.005
0.2 0.545714 0.005
0.2 0.552095 0.005
POINT_DATA 85
 FIELD attributes 1
alpha.water 1 85 float
1 1 1 1 1 1 1 1 1 1 0.679618 0.182193 0.0025737 3.74652e-05 3.54812e-05 1.11895e-07 2.46255e-07 1.66556e-07 8.6363e-09 1.84341e-09 5.59247e-09 4.04597e-09 2.41098e-10 9.67905e-13 1.02049e-12 5.1e-13 1.65065e-13 5.34368e-14 1.60857e-14 4.46317e-15 1.02102e-15 1.79206e-16 2.40988e-17 2.57594e-18 2.26924e-19 1.57902e-20 7.37268e-22 -2.70331e-23 -4.40195e-23 -2.49868e-23 -8.83439e-24 -2.19682e-24 -4.3046e-25 -7.92107e-26 -1.52378e-26 -2.83223e-27 -4.86886e-28 -9.24875e-29 -2.70637e-29 -1.23535e-29 -6.55144e-30 -3.47757e-30 -1.78224e-30 -8.75167e-31 -4.10809e-31 -1.84124e-31 -7.87564e-32 -3.21664e-32 -1.25768e-32 -4.73762e-33 -1.74144e-33 -6.37959e-34 -2.39321e-34 -9.39547e-35 -3.86486e-35 -1.62899e-35 -6.80695e-36 -2.73702e-36 -1.03613e-36 -3.63733e-37 -1.17075e-37 -3.4214e-38 -8.98909e-39 -2.09998e-39 -4.30562e-40 -7.62727e-41 -1.14545e-41 -1.42227e-42 -1.41903e-43 -1.09799e-44 -6.31555e-46 -2.58461e-47 -7.55201e-49 -1.72407e-50 -1.92114e-52
