# vtk DataFile Version 2.0
gauge_2
ASCII
DATASET POLYDATA
POINTS 85 double
0.2 0.0329993 0.005
0.2 0.0359992 0.005
0.2 0.0389992 0.005
0.2 0.0419991 0.005
0.2 0.044999 0.005
0.2 0.047999 0.005
0.2 0.0543799 0.005
0.2 0.0607609 0.005
0.2 0.0671419 0.005
0.2 0.0735228 0.005
0.2 0.0799038 0.005
0.2 0.0862847 0.005
0.2 0.0926657 0.005
0.2 0.0990467 0.005
0.2 0.105428 0.005
0.2 0.111809 0.005
0.2 0.11819 0.005
0.2 0.124571 0.005
0.2 0.130952 0.005
0.2 0.137332 0.005
0.2 0.143713 0.005
0.2 0.150094 0.005
0.2 0.156475 0.005
0.2 0.162856 0.005
0.2 0.169237 0.005
0.2 0.175618 0.005
0.2 0.181999 0.005
0.2 0.18838 0.005
0.2 0.194761 0.005
0.2 0.201142 0.005
0.2 0.207523 0.005
0.2 0.213904 0.005
0.2 0.220285 0.005
0.2 0.226666 0.005
0.2 0.233047 0.005
0.2 0.239428 0.005
0.2 0.245809 0.005
0.2 0.25219 0.005
0.2 0.258571 0.005
0.2 0.264952 0.005
0.2 0.271333 0.005
0.2 0.277714 0.005
0.2 0.284095 0.005
0.2 0.290476 0.005
0.2 0.296857 0.005
0.2 0.303238 0.005
0.2 0.309619 0.005
0.2 0.315999 0.005
0.2 0.32238 0.005
0.2 0.328761 0.005
0.2 0.335142 0.005
0.2 0.341523 0.005
0.2 0.347904 0.005
0.2 0.354285 0.005
0.2 0.360666 0.005
0.2 0.367047 0.005
0.2 0.373428 0.005
0.2 0.379809 0.005
0.2 0.38619 0.005
0.2 0.392571 0.005
0.2 0.398952 0.005
0.2 0.405333 0.005
0.2 0.411714 0.005
0.2 0.418095 0.005
0.2 0.424476 0.005
0.2 0.430857 0.005
0.2 0.437238 0.005
0.2 0.443619 0.005
0.2 0.45 0.005
0.2 0.456381 0.005
0.2 0.462762 0.005
0.2 0.469143 0.005
0.2 0.475524 0.005
0.2 0.481905 0.005
0.2 0.488286 0.005
0.2 0.494666 0.005
0.2 0.501047 0.005
0.2 0.507428 0.005
0.2 0.513809 0.005
0.2 0.52019 0.005
0.2 0.526571 0.005
0.2 0.532952 0.005
0.2 0.539333 0.005
0.2 0.545714 0.005
0.2 0.552095 0.005
POINT_DATA 85
 FIELD attributes 1
alpha.water 1 85 float
1 1 1 1 1 1 1 1 1 0.992535 0.568839 0.0768172 0.000514041 1.81966e-05 1.54426e-05 1.61402e-07 2.05146e-07 1.10861e-07 1.02875e-08 1.00608e-08 1.25563e-08 4.12507e-09 3.72587e-13 4.23267e-13 2.77838e-13 8.4621e-14 2.39186e-14 7.1717e-15 1.94498e-15 4.58408e-16 8.77909e-17 1.3355e-17 1.6384e-18 1.64767e-19 1.35426e-20 8.32897e-22 7.45891e-24 -2.61721e-23 -1.92324e-23 -8.57599e-24 -2.67423e-24 -6.28072e-25 -1.23299e-25 -2.32573e-26 -4.42689e-27 -7.91442e-28 -1.3084e-28 -2.37082e-29 -6.46138e-30 -2.71025e-30 -1.32149e-30 -6.446e-31 -3.03044e-31 -1.36296e-31 -5.85421e-32 -2.40034e-32 -9.39955e-33 -3.52287e-33 -1.27025e-33 -4.4522e-34 -1.54365e-34 -5.42211e-35 -1.97341e-35 -7.50022e-36 -2.93515e-36 -1.14984e-36 -4.38026e-37 -1.58656e-37 -5.3799e-38 -1.68948e-38 -4.87175e-39 -1.27962e-39 -3.03484e-40 -6.43244e-41 -1.20334e-41 -1.9574e-42 -2.71932e-43 -3.1507e-44 -2.96443e-45 -2.19113e-46 -1.22345e-47 -4.96801e-49 -1.47398e-50 -3.38202e-52 -3.84709e-54
