# vtk DataFile Version 2.0
gauge_2
ASCII
DATASET POLYDATA
POINTS 85 double
0.2 0.0329993 0.005
0.2 0.0359992 0.005
0.2 0.0389992 0.005
0.2 0.0419991 0.005
0.2 0.044999 0.005
0.2 0.047999 0.005
0.2 0.0543799 0.005
0.2 0.0607609 0.005
0.2 0.0671419 0.005
0.2 0.0735228 0.005
0.2 0.0799038 0.005
0.2 0.0862847 0.005
0.2 0.0926657 0.005
0.2 0.0990467 0.005
0.2 0.105428 0.005
0.2 0.111809 0.005
0.2 0.11819 0.005
0.2 0.124571 0.005
0.2 0.130952 0.005
0.2 0.137332 0.005
0.2 0.143713 0.005
0.2 0.150094 0.005
0.2 0.156475 0.005
0.2 0.162856 0.005
0.2 0.169237 0.005
0.2 0.175618 0.005
0.2 0.181999 0.005
0.2 0.18838 0.005
0.2 0.194761 0.005
0.2 0.201142 0.005
0.2 0.207523 0.005
0.2 0.213904 0.005
0.2 0.220285 0.005
0.2 0.226666 0.005
0.2 0.233047 0.005
0.2 0.239428 0.005
0.2 0.245809 0.005
0.2 0.25219 0.005
0.2 0.258571 0.005
0.2 0.264952 0.005
0.2 0.271333 0.005
0.2 0.277714 0.005
0.2 0.284095 0.005
0.2 0.290476 0.005
0.2 0.296857 0.005
0.2 0.303238 0.005
0.2 0.309619 0.005
0.2 0.315999 0.005
0.2 0.32238 0.005
0.2 0.328761 0.005
0.2 0.335142 0.005
0.2 0.341523 0.005
0.2 0.347904 0.005
0.2 0.354285 0.005
0.2 0.360666 0.005
0.2 0.367047 0.005
0.2 0.373428 0.005
0.2 0.379809 0.005
0.2 0.38619 0.005
0.2 0.392571 0.005
0.2 0.398952 0.005
0.2 0.405333 0.005
0.2 0.411714 0.005
0.2 0.418095 0.005
0.2 0.424476 0.005
0.2 0.430857 0.005
0.2 0.437238 0.005
0.2 0.443619 0.005
0.2 0.45 0.005
0.2 0.456381 0.005
0.2 0.462762 0.005
0.2 0.469143 0.005
0.2 0.475524 0.005
0.2 0.481905 0.005
0.2 0.488286 0.005
0.2 0.494666 0.005
0.2 0.501047 0.005
0.2 0.507428 0.005
0.2 0.513809 0.005
0.2 0.52019 0.005
0.2 0.526571 0.005
0.2 0.532952 0.005
0.2 0.539333 0.005
0.2 0.545714 0.005
0.2 0.552095 0.005
POINT_DATA 85
 FIELD attributes 1
alpha.water 1 85 float
1 1 1 1 1 1 1 1 1 0.979318 0.662273 0.183423 0.000466188 3.5296e-06 3.94173e-06 4.57445e-07 4.51349e-09 1.89845e-09 5.33882e-10 7.18221e-10 3.55145e-10 4.83067e-11 9.14069e-13 8.07385e-13 1.54609e-12 3.46821e-12 5.53048e-12 4.93705e-12 2.28521e-12 7.15143e-13 2.38213e-13 1.03207e-13 5.19034e-14 2.10485e-14 7.1846e-15 2.29066e-15 8.33081e-16 2.95212e-16 5.09032e-17 4.66178e-15 1.41846e-14 5.22034e-14 5.40672e-14 1.36929e-14 2.32808e-15 4.213e-17 2.10678e-17 3.87681e-19 1.75642e-19 1.30183e-20 1.59322e-21 3.78475e-23 4.79517e-24 7.58876e-26 5.52969e-27 2.46796e-28 1.24577e-29 1.75991e-31 -5.45539e-31 -5.89967e-31 -1.9833e-31 -5.13523e-32 -1.08751e-32 -2.07951e-33 -3.76365e-34 -6.73929e-35 -1.24289e-35 -2.42609e-36 -5.05538e-37 -1.11895e-37 -2.60191e-38 -6.2555e-39 -1.52093e-39 -3.6452e-40 -8.40758e-41 -1.83082e-41 -3.71028e-42 -6.93042e-43 -1.18525e-43 -1.84803e-44 -2.62076e-45 -3.37733e-46 -3.95628e-47 -4.21931e-48 -4.10862e-49
