/*--------------------------------*- C++ -*----------------------------------*\
| =========                 |                                                 |
| \\      /  F ield         | OpenFOAM: The Open Source CFD Toolbox           |
|  \\    /   O peration     | Version:  v1912                                 |
|   \\  /    A nd           | Website:  www.openfoam.com                      |
|    \\/     M anipulation  |                                                 |
\*---------------------------------------------------------------------------*/
FoamFile
{
    version     2.0;
    format      ascii;
    class       volScalarField;
    location    "0.25";
    object      alpha.water;
}
// * * * * * * * * * * * * * * * * * * * * * * * * * * * * * * * * * * * * * //

dimensions      [0 0 0 0 0 0 0];


internalField   nonuniform List<scalar> 
9072
(
1
1
1
1
1
1
1
1
1
1
1
1
1
1
1
1
1
1
1
1
0.778225
0.950165
0.99871
1
1
1
1
1
1
1
1
1
1
1
1
1
1
1
1
1
1
1
1
0.999995
0.809906
0.92918
1
1
1
1
1
1
1
1
1
1
1
1
1
1
1
1
1
1
1
1
1
0.826484
0.874978
1
1
1
1
1
1
1
1
1
1
1
1
1
1
1
1
1
1
1
1
1
0.999999
0.995817
1
1
1
1
1
1
1
1
1
1
1
1
1
1
1
1
1
1
1
1
1
1
1
1
1
1
1
1
1
1
1
1
1
1
1
1
1
1
1
1
1
1
1
1
1
1
1
1
1
1
1
1
1
1
1
1
1
1
1
1
1
1
1
1
1
1
1
1
1
1
1
1
1
1
1
1
1
1
1
1
1
1
1
1
1
1
1
1
1
1
1
1
3.2293e-35
1.20212e-35
1.41914e-36
2.2571e-38
2.57958e-41
2.66786e-44
4.56974e-47
5.62216e-50
3.8635e-53
1.56704e-56
3.32447e-60
4.95981e-64
6.54541e-68
7.29273e-72
5.73166e-76
3.0665e-80
9.27135e-85
1.04053e-89
1.26085e-95
1.05967e-30
2.12733e-31
1.96629e-31
6.26574e-33
3.64727e-36
4.71586e-39
8.21177e-42
9.772e-45
7.96578e-48
4.53416e-51
1.78089e-54
5.08869e-58
9.87509e-62
1.79684e-65
1.78711e-69
1.00918e-73
2.4061e-78
8.72046e-85
3.27431e-91
2.83591e-27
3.432e-27
4.46354e-27
6.59425e-29
3.35877e-32
4.89929e-35
7.46999e-38
7.99497e-41
5.94302e-44
2.99594e-47
1.03673e-50
2.44151e-54
4.13879e-58
5.29009e-62
3.55682e-66
2.26513e-71
1.06526e-76
3.22247e-82
-4.24267e-88
3.80167e-24
3.62665e-23
6.15776e-23
3.67663e-25
1.49233e-28
1.69314e-31
2.12026e-34
2.13013e-37
1.54753e-40
7.59079e-44
2.51705e-47
5.45815e-51
8.42845e-55
8.66924e-59
2.95994e-63
7.88011e-69
1.27075e-73
-1.73758e-79
-8.44093e-85
7.14099e-21
3.78729e-19
8.00379e-19
2.58736e-21
3.38929e-25
2.26445e-28
2.59975e-31
2.45583e-34
1.68723e-37
8.21665e-41
2.73561e-44
5.93762e-48
8.47155e-52
7.34875e-56
2.79586e-61
7.38126e-66
3.09684e-71
-2.35527e-75
-5.0715e-82
5.33425e-16
1.62759e-16
9.35836e-17
1.63632e-19
3.43846e-23
5.44743e-26
6.40147e-29
5.44459e-32
4.23084e-35
2.55348e-38
1.00441e-41
2.50225e-45
3.52283e-49
3.02084e-53
1.21355e-58
2.78267e-63
2.74357e-68
-1.37402e-73
-1.19516e-79
9.707e-13
3.58195e-14
3.51802e-16
1.98378e-19
4.09828e-22
1.7219e-24
3.64544e-27
4.62503e-30
3.16222e-33
1.46637e-36
5.40933e-40
1.16006e-43
1.96048e-47
1.59573e-51
5.43943e-57
1.82994e-61
-2.66357e-67
-1.57353e-71
-7.09015e-78
1.68814e-08
3.12187e-11
7.04782e-15
1.15725e-18
7.54304e-21
1.31145e-22
7.7654e-25
2.00332e-27
2.17644e-30
8.91524e-34
2.0953e-37
2.96773e-41
1.12514e-45
1.87029e-50
7.79736e-55
3.44948e-60
-1.65834e-64
-1.40579e-69
-3.72318e-75
1
1
1
1
1
1
1
1
1
1
1
1
1
1
1
1
1
1
1
1
1
1
1
1
1
1
1
1
1
1
1
1
1
1
1
1
1
1
1
1
1
1
1
1
1
1
1
1
1
1
1
1
1
1
1
1
1
1
1
1
1
1
1
1
1
1
1
1
1
1
1
1
1
1
1
1
1
1
1
1
1
1
0.999999
0.999994
0.999966
0.999954
0.998007
1
1
1
1
1
1
1
1
1
1
1
1
1
1
1
0.999999
0.999992
0.99991
0.977788
0.63555
0.162959
0.000332193
6.51e-05
0.000400481
0.0211728
0.143458
0.49587
0.999993
1
1
1
1
1
1
1
0.999999
0.999992
0.999952
0.999581
0.818226
0.20061
1.54652e-05
1.97729e-05
0.000189612
0.00230728
0.00100772
2.08156e-06
2.68733e-07
6.41288e-06
3.04998e-05
0.000269457
0.999995
0.999993
0.999995
0.99999
0.999981
0.999953
0.999811
0.996089
0.853423
0.391885
1.93936e-05
-8.54487e-09
-8.46716e-09
3.97153e-09
0.000822918
0.00271173
0.00113994
1.17681e-07
5.71313e-10
1.50008e-09
1.33997e-08
7.98155e-08
7.86881e-07
0.749411
0.922149
0.918202
0.826785
0.670299
0.39523
0.135596
4.90828e-09
-2.18364e-10
-1.59997e-09
1.71669e-10
2.16995e-09
3.47112e-09
3.87719e-09
0.00268309
0.00128773
1.67129e-07
6.65428e-10
3.91836e-10
4.17562e-10
5.1531e-10
5.53097e-10
1.59813e-09
-1.26814e-19
0
-3.36886e-49
-3.94609e-27
-7.5323e-15
-1.84009e-12
-6.92393e-12
-1.53876e-11
9.46308e-13
2.89174e-11
1.24173e-11
4.18523e-09
4.87762e-09
4.12699e-09
0.000489883
4.72501e-06
3.06568e-09
3.36951e-10
3.54807e-10
4.332e-10
4.7228e-10
4.43617e-10
2.17989e-10
-2.32687e-19
-7.30834e-17
-4.91876e-15
-1.30312e-13
-1.38267e-12
-7.33161e-12
-1.7284e-11
-1.8858e-11
2.57309e-10
1.49829e-10
8.54023e-10
5.93184e-07
2.10802e-06
1.56686e-06
3.1918e-05
1.36318e-05
2.45754e-09
2.08783e-10
1.86693e-10
1.46479e-10
9.22053e-11
5.97815e-11
6.77148e-11
-2.50099e-19
-1.34822e-16
-1.01083e-14
-2.46753e-13
-2.30081e-12
-8.90227e-12
-9.00358e-12
-3.33577e-13
2.08123e-08
9.6538e-09
3.91929e-05
0.000574417
0.000575166
5.93718e-06
0.000257855
1.89213e-05
3.62529e-09
6.82731e-11
3.38504e-11
1.2783e-11
3.12518e-12
1.23898e-12
1.60151e-12
-3.2477e-19
-1.86379e-16
-1.41438e-14
-3.17735e-13
-2.53487e-12
-5.90351e-12
5.94313e-12
-1.15534e-12
1.50472e-06
9.25849e-06
4.00184e-06
0.000573129
0.000575155
0.000259924
0.000216627
9.28783e-09
4.72636e-11
8.98779e-12
2.57573e-12
2.67331e-13
3.4369e-14
5.73152e-14
4.47349e-13
-3.32142e-19
-1.99621e-16
-1.44982e-14
-2.94014e-13
-1.89282e-12
-4.22249e-13
1.19059e-11
-5.36885e-11
0.000932024
5.61287e-06
8.84599e-07
1.63401e-07
0.000197086
1.63319e-05
1.3588e-06
-1.12958e-12
1.14861e-11
2.34997e-12
4.55154e-14
1.31198e-15
4.94972e-15
1.19893e-13
1.52629e-12
-2.51211e-19
-1.61892e-16
-1.09489e-14
-1.94252e-13
-9.18144e-13
8.20221e-12
1.25869e-11
4.57318e-06
0.0009324
9.70956e-06
4.1445e-06
2.41952e-06
1.5624e-07
5.93265e-07
1.10999e-11
2.37978e-12
4.34559e-13
3.10596e-14
1.855e-16
2.4224e-16
1.37513e-14
3.09438e-13
3.39385e-12
-1.34749e-19
-9.55345e-17
-5.874e-15
-8.72697e-14
-2.49134e-13
1.2648e-11
1.51103e-11
2.32479e-09
0.000881776
0.000915414
1.51049e-08
2.98262e-06
7.76929e-14
3.08183e-11
2.61608e-11
1.49753e-13
4.7081e-15
3.48168e-17
6.28848e-18
4.15952e-16
1.77336e-14
3.40459e-13
4.67962e-12
-4.77219e-20
-3.83011e-17
-2.07104e-15
-2.42264e-14
-2.27514e-14
8.75303e-12
5.17211e-11
3.25987e-12
-3.64476e-11
0.000580438
1.51049e-08
2.90431e-07
1.11901e-13
1.97813e-12
4.99193e-14
6.29878e-16
7.1671e-18
9.93254e-20
2.5235e-18
3.69558e-16
1.66366e-14
3.92617e-13
9.4645e-12
-9.54515e-21
-9.18908e-18
-4.17517e-16
-3.54871e-15
-1.44676e-17
7.62004e-13
3.84186e-11
1.53031e-11
3.40075e-12
2.20786e-12
8.40583e-07
6.97471e-07
6.52034e-11
1.88415e-14
1.59825e-15
3.1225e-18
8.50606e-22
8.69204e-21
1.08681e-18
2.09144e-16
2.63968e-14
6.3644e-13
9.1917e-12
-7.58587e-22
-1.02897e-18
-3.75264e-17
-2.22576e-16
-1.00498e-31
1.14586e-14
3.71411e-12
1.84643e-11
6.97626e-12
2.18467e-12
1.75026e-15
1.02568e-15
8.90079e-11
7.98452e-15
1.8555e-17
2.06445e-21
1.60192e-23
2.50448e-21
8.45649e-19
2.38344e-16
5.12764e-14
1.07731e-12
1.17957e-11
-9.32796e-24
-3.22211e-20
-9.38483e-19
-3.9639e-18
-6.69584e-32
5.68522e-16
1.17662e-13
8.36184e-13
8.85518e-13
6.37712e-13
1.20558e-13
7.65526e-16
3.06181e-11
4.71996e-16
4.02601e-35
-1.97981e-38
1.59976e-24
1.36364e-21
6.69545e-19
2.69998e-16
7.18568e-14
3.04945e-12
1.28068e-11
-1.0433e-30
-2.29031e-30
-3.02634e-35
6.84538e-45
-1.29152e-24
3.99895e-17
3.74981e-15
1.86409e-14
2.73673e-14
2.13885e-14
3.60138e-15
7.00107e-16
-1.32831e-16
-3.31195e-18
-1.11447e-20
-7.99555e-23
-1.31207e-25
6.91687e-22
4.45844e-19
2.34577e-16
7.79045e-14
5.94996e-12
1.67858e-11
-2.46503e-32
-2.1636e-31
-4.95562e-33
1.11891e-32
8.86523e-27
1.36467e-18
4.31404e-17
1.89014e-16
3.09424e-16
3.63499e-16
4.02098e-17
1.72442e-20
-1.77261e-19
-4.89309e-20
-2.39259e-21
-1.97306e-23
-4.38312e-25
2.18335e-22
2.12056e-19
1.30091e-16
5.33334e-14
4.68503e-12
4.58247e-11
-3.11331e-37
-6.20233e-33
-3.5311e-32
-3.88826e-31
6.75496e-31
2.11865e-21
2.30826e-19
9.56762e-19
9.61016e-19
1.03235e-19
-1.5177e-20
-9.49214e-20
-6.2114e-20
-1.29937e-20
-5.61377e-22
-1.83688e-24
-7.97534e-24
-6.89421e-22
4.19044e-20
4.58216e-17
2.67833e-14
4.84306e-12
5.93785e-11
-1.07757e-37
-2.40498e-34
-4.59256e-32
-2.46399e-30
-2.32755e-29
1.38346e-27
5.2573e-22
5.61515e-21
7.30749e-21
5.70432e-22
-5.66967e-21
-1.26091e-20
-7.61887e-21
-1.60052e-21
-6.43261e-23
-5.57225e-25
-9.00482e-23
-8.17108e-21
-2.07834e-19
1.79226e-17
1.79299e-14
5.67507e-12
7.32687e-11
-2.15145e-38
-9.10438e-35
-2.13113e-32
-1.63708e-30
-5.34687e-29
-7.70057e-28
-1.16461e-27
2.37505e-25
-6.03168e-24
-1.332e-22
-4.84233e-22
-6.01543e-22
-3.40785e-22
-7.71596e-23
-3.36132e-24
-4.59795e-24
-7.55841e-22
-6.4643e-20
-1.82923e-18
4.957e-18
1.05141e-14
4.51661e-12
7.56901e-11
-8.45153e-40
-1.00927e-35
-2.6939e-33
-2.48076e-31
-1.06169e-29
-2.59941e-28
-4.44538e-27
-5.52711e-26
-4.20323e-25
-1.71366e-24
-3.74739e-24
-4.50758e-24
-2.86558e-24
-7.85073e-25
-1.35747e-25
-2.44736e-23
-3.95406e-21
-3.28463e-19
-9.73092e-18
-5.46261e-18
4.59533e-15
2.58154e-12
7.66065e-11
-7.16801e-44
-4.95952e-38
-1.05058e-35
-7.87427e-34
-2.79286e-32
-5.41074e-31
-6.21522e-30
-4.44186e-29
-2.02318e-28
-5.89582e-28
-1.08495e-27
-1.23317e-27
-8.41967e-28
-6.99608e-28
-1.6578e-25
-4.62475e-23
-7.8503e-21
-7.09651e-19
-2.60269e-17
-1.26147e-16
1.9937e-15
1.4699e-12
2.05221e-11
-1.10367e-50
-1.82345e-44
-3.99234e-42
-3.25528e-40
-1.31773e-38
-3.04455e-37
-4.34143e-36
-4.0018e-35
-2.45455e-34
-1.02993e-33
-3.09932e-33
-7.1206e-33
-9.41541e-32
-6.01399e-29
-3.07079e-26
-1.05974e-23
-2.32745e-21
-2.97461e-19
-1.88626e-17
-3.67318e-16
1.39077e-17
8.66028e-14
2.75485e-11
-1.05538e-59
-5.13872e-52
-1.18772e-49
-1.01436e-47
-4.28171e-46
-1.03109e-44
-1.53839e-43
-1.49414e-42
-9.70328e-42
-4.25584e-41
-1.89605e-40
-1.45923e-37
-2.37404e-34
-2.74152e-31
-2.20867e-28
-1.21372e-25
-4.40841e-23
-1.01303e-20
-1.37731e-18
-9.69441e-17
-2.17098e-15
-7.34778e-17
2.97988e-13
-5.186e-71
-9.79799e-62
-2.97773e-59
-3.35002e-57
-1.86303e-55
-5.89853e-54
-1.15177e-52
-1.45491e-51
-1.2282e-50
-1.81738e-49
-6.67761e-46
-2.84491e-42
-8.43173e-39
-1.72588e-35
-2.41938e-32
-2.29522e-29
-1.45495e-26
-6.04907e-24
-1.61987e-21
-2.71271e-19
-2.84009e-17
-1.66802e-15
-5.16728e-14
-2.07235e-76
-6.81286e-70
-4.00709e-67
-9.21357e-65
-1.1223e-62
-8.53371e-61
-4.54686e-59
-1.86535e-57
-6.44937e-56
-5.57957e-54
-5.09907e-51
-4.00605e-48
-1.69836e-45
-2.76778e-43
-1.94557e-58
2.30145e-40
5.10237e-36
-3.54949e-37
2.61135e-31
-1.02603e-31
2.22105e-22
-2.55866e-20
-8.68005e-19
-5.4674e-83
-7.50318e-76
-6.32862e-73
-2.10885e-70
-3.81527e-68
-4.53653e-66
-4.09854e-64
-3.08217e-62
-3.26434e-60
-5.41347e-57
-1.32332e-53
-2.11652e-50
-2.13016e-47
-1.28159e-44
-4.04769e-42
-2.85036e-40
-8.4725e-41
-9.4617e-38
1.04606e-33
1.13316e-29
8.99404e-27
4.31675e-24
9.23823e-22
-5.83875e-91
-1.14627e-82
-1.28561e-79
-5.94431e-77
-1.69796e-74
-3.90401e-72
-7.58643e-70
-1.13433e-67
-1.39219e-65
-4.75849e-63
-7.75302e-60
-1.31147e-56
-1.83223e-53
-5.81574e-50
-7.48788e-47
-1.08334e-43
-1.51733e-40
-9.04742e-38
-1.62716e-36
-7.67658e-33
1.14071e-30
5.08365e-28
1.46629e-25
-6.20566e-100
-9.6675e-92
-1.43685e-88
-8.38128e-86
-5.92349e-83
-6.35124e-79
-7.20338e-75
-5.3697e-71
-2.68872e-67
-9.20149e-64
-2.17186e-60
-3.54587e-57
-3.99634e-54
-3.08322e-51
-1.60526e-48
-5.48974e-46
-1.1564e-43
-1.09682e-41
-1.62717e-40
-8.65117e-38
-9.80221e-36
2.14313e-33
1.00986e-29
-1.78665e-105
-1.57824e-98
-3.02831e-93
-2.21752e-88
-8.20646e-84
-1.75922e-79
-2.3611e-75
-2.0816e-71
-1.24305e-67
-5.12906e-64
-1.48044e-60
-3.01041e-57
-4.32869e-54
-4.4024e-51
-3.16211e-48
-1.59727e-45
-5.63644e-43
-1.37642e-40
-2.28799e-38
-2.51192e-36
-1.70092e-34
-5.32469e-33
-2.118e-33
-1.78059e-109
-3.94888e-101
-8.55208e-96
-7.11035e-91
-3.00536e-86
-7.40861e-82
-1.15242e-77
-1.18805e-73
-8.3806e-70
-4.13309e-66
-1.44567e-62
-3.62125e-59
-6.54083e-56
-8.55468e-53
-8.13045e-50
-5.62947e-47
-2.84708e-44
-1.05617e-41
-2.88758e-39
-5.84165e-37
-8.80631e-35
-9.98762e-33
-8.60798e-31
-1.25755e-114
-9.57357e-106
-2.43129e-100
-2.37357e-95
-1.18133e-90
-3.44441e-86
-6.37145e-82
-7.85529e-78
-6.66385e-74
-3.97479e-70
-1.69186e-66
-5.19302e-63
-1.15857e-59
-1.88884e-56
-2.26108e-53
-1.99511e-50
-1.30298e-47
-6.33413e-45
-2.30937e-42
-6.36432e-40
-1.33907e-37
-2.17989e-35
-2.78424e-33
-7.90094e-121
-2.98683e-111
-9.6986e-106
-1.19328e-100
-7.46378e-96
-2.73981e-91
-6.40556e-87
-1.00275e-82
-1.0848e-78
-8.28387e-75
-4.53173e-71
-1.79543e-67
-5.19671e-64
-1.10592e-60
-1.74067e-57
-2.03629e-54
-1.77945e-51
-1.16885e-48
-5.81805e-46
-2.21704e-43
-6.54402e-41
-1.51805e-38
-2.81245e-36
-2.14894e-128
-8.78848e-118
-4.3599e-112
-7.69623e-107
-6.77165e-102
-3.46934e-97
-1.12814e-92
-2.45332e-88
-3.6874e-84
-3.91472e-80
-2.9803e-76
-1.64551e-72
-6.651e-69
-1.9826e-65
-4.39023e-62
-7.26777e-59
-9.05216e-56
-8.54487e-53
-6.16379e-50
-3.43632e-47
-1.50091e-44
-5.21084e-42
-1.463e-39
-2.67906e-138
-1.43951e-125
-1.32924e-119
-3.86204e-114
-5.4082e-109
-4.35339e-104
-2.20859e-99
-7.4579e-95
-1.73592e-90
-2.85151e-86
-3.35906e-82
-2.87109e-78
-1.79794e-74
-8.314e-71
-2.86164e-67
-7.38651e-64
-1.4409e-60
-2.1424e-57
-2.44913e-54
-2.17651e-51
-1.52642e-48
-8.56934e-46
-3.92067e-43
-7.14352e-168
-4.37865e-135
-9.28972e-129
-5.20428e-123
-1.34604e-117
-1.97176e-112
-1.80912e-107
-1.10109e-102
-4.61017e-98
-1.36125e-93
-2.88283e-89
-4.43246e-85
-4.99761e-81
-4.16585e-77
-2.58858e-73
-1.20861e-69
-4.27661e-66
-1.15803e-62
-2.42304e-59
-3.95964e-56
-5.1313e-53
-5.34817e-50
-4.55348e-47
-1.19502e-197
-9.41681e-148
-6.49699e-141
-9.4396e-135
-6.03095e-129
-2.14751e-123
-4.75912e-118
-6.97577e-113
-7.02003e-108
-4.97265e-103
-2.52194e-98
-9.27116e-94
-2.49569e-89
-4.96048e-85
-7.34268e-81
-8.16149e-77
-6.87286e-73
-4.43054e-69
-2.21004e-65
-8.62243e-62
-2.66824e-58
-6.65083e-55
-1.35257e-51
0
-5.1827e-169
-3.07295e-161
-2.56498e-154
-9.01192e-148
-1.74659e-141
-2.09913e-135
-1.66566e-129
-9.0606e-124
-3.46284e-118
-9.45476e-113
-1.86649e-107
-2.69034e-102
-2.85361e-97
-2.24518e-92
-1.32023e-87
-5.84877e-83
-1.9702e-78
-5.09601e-74
-1.02215e-69
-1.60521e-65
-2.00101e-61
-1.99372e-57
0.999999
0.0391325
0.00284647
0.00216495
0.999995
0.999709
0.888241
0.41786
1
1
0.999978
0.999911
1
1
1
0.999999
1
1
1
0.999999
0.0255093
0.144174
0.408303
0.763887
1.74372e-06
4.20431e-06
3.67099e-05
0.000112447
6.66454e-09
2.20929e-08
5.95515e-08
-7.25344e-08
1.62104e-10
1.01012e-10
1.05876e-10
2.35209e-10
7.86305e-11
7.85763e-11
7.94325e-11
6.47631e-11
4.53892e-12
8.89225e-12
1.76649e-11
3.71184e-11
3.49303e-12
8.31938e-12
1.66595e-11
2.77294e-11
9.56297e-12
1.95777e-11
3.3763e-11
4.67034e-11
2.79813e-11
6.49407e-11
1.35864e-10
1.62388e-10
2.89404e-11
5.63324e-11
9.02376e-11
8.98443e-11
3.75992e-11
5.27168e-11
6.05164e-11
1.65297e-10
4.53207e-11
1.21687e-10
8.6405e-10
4.60296e-09
6.6332e-11
3.62868e-09
3.15201e-09
3.37046e-09
1.75443e-09
3.58125e-09
2.28299e-09
1.50061e-08
1.11352e-09
8.58213e-10
2.29164e-09
6.38226e-09
8.93252e-10
8.15908e-10
7.51639e-08
3.11516e-08
9.09092e-10
9.734e-10
7.24445e-08
2.37393e-07
8.87031e-10
3.52673e-09
2.02146e-07
0.000248595
1.26097e-09
3.29111e-07
1.31681e-06
0.000340926
2.81445e-09
3.824e-07
1.20407e-05
0.000375896
3.30724e-09
4.56254e-07
7.59157e-06
0.000234712
4.56564e-09
3.5431e-07
6.56763e-06
7.54554e-05
8.50056e-11
6.87634e-09
1.51064e-07
2.23865e-06
-6.16695e-13
-8.36941e-12
1.55869e-10
-1.2352e-09
-1.2413e-16
5.65056e-15
-4.17017e-13
-1.97917e-13
4.61516e-19
2.00488e-17
1.1731e-15
4.32345e-14
2.20912e-22
1.5004e-20
7.17573e-19
3.08578e-17
4.5533e-26
3.80384e-24
2.51324e-22
1.24629e-20
3.87394e-30
5.73066e-28
5.57121e-26
4.02071e-24
-5.7176e-29
-9.30612e-28
-1.31457e-26
-1.54062e-25
-2.8387e-31
-6.94296e-30
-1.52006e-28
-2.98753e-27
-4.23335e-34
-1.4893e-32
-4.71972e-31
-1.35161e-29
-3.3773e-37
-1.77116e-35
-8.37498e-34
-3.58293e-32
-1.48855e-40
-1.24935e-38
-9.4752e-37
-6.5208e-35
-3.22914e-44
-4.90243e-42
-6.69546e-40
-8.05816e-38
-2.28877e-48
-8.02159e-46
-2.51832e-43
-6.31871e-41
-1.59342e-53
-2.48806e-50
-3.3394e-47
-2.56868e-44
4.36702e-07
1.15556e-10
3.07583e-14
4.12497e-15
1.36359e-17
2.00002e-19
1.65376e-21
4.98155e-24
7.37323e-27
5.07975e-30
1.31707e-33
2.6905e-37
3.30054e-41
3.52205e-46
1.08235e-50
3.28292e-55
-4.40055e-60
-4.73534e-66
-2.44815e-71
0.0129335
1.00655e-08
5.06122e-11
4.99699e-14
8.83709e-14
2.42253e-15
9.58849e-18
2.51412e-20
4.17002e-23
3.77553e-26
1.5478e-29
3.55439e-33
6.35717e-37
2.7356e-41
4.67572e-46
1.61521e-50
-1.72027e-56
-1.32306e-60
-2.18723e-66
0.999083
0.0194253
2.66432e-07
5.00426e-11
1.00887e-12
9.15908e-13
3.58978e-14
8.90069e-17
9.76468e-20
1.08316e-22
6.8965e-26
1.92892e-29
4.2735e-33
2.8685e-37
7.09096e-42
1.74375e-46
-6.17898e-52
-8.56654e-56
-2.66605e-61
0.999993
0.999461
0.260733
5.7821e-07
4.8242e-09
1.81117e-11
2.72164e-12
5.86818e-14
7.56034e-17
8.30556e-20
8.12807e-23
4.52147e-26
1.10812e-29
1.40733e-33
4.76257e-38
9.76963e-43
1.03561e-47
-3.46019e-52
-3.85914e-57
0.999999
0.999995
0.999703
0.506529
1.38542e-05
4.43058e-08
9.54094e-11
2.57643e-12
1.13434e-14
8.81694e-18
1.21288e-20
2.02432e-23
5.22555e-27
1.20233e-30
4.95835e-35
1.35842e-39
5.65175e-44
-7.65602e-49
-6.55513e-54
0.999996
0.999993
0.999948
0.999767
0.533607
5.90033e-05
1.25773e-07
2.50634e-10
1.29442e-12
4.16942e-15
2.49509e-18
2.1428e-21
3.79618e-25
2.81703e-29
5.60853e-33
2.39488e-37
2.17648e-42
-1.03539e-46
-4.30872e-51
0.000644669
0.409557
0.999758
0.999686
0.999372
0.286614
5.89582e-05
1.51658e-07
3.29382e-10
2.96802e-13
5.47553e-16
2.26658e-19
4.50006e-23
1.42729e-26
1.81249e-30
9.29045e-35
4.77498e-39
-3.26979e-43
-6.62063e-48
1.75419e-06
4.84281e-05
0.0239499
0.919468
0.998585
0.996602
0.0230365
1.78033e-05
5.54681e-08
1.26811e-10
4.44072e-14
4.40711e-17
3.46437e-20
1.24178e-23
1.39577e-27
1.92149e-31
2.59939e-36
-1.46545e-39
-2.40799e-44
2.58636e-09
1.16986e-07
7.91869e-06
0.000437803
0.730876
0.992202
0.657029
0.00057635
2.71168e-06
9.5134e-09
1.24485e-11
7.35456e-15
8.59064e-18
4.67784e-21
6.04972e-25
-8.1788e-30
-6.04972e-33
-1.87781e-36
-3.79453e-41
7.31281e-11
2.43454e-10
2.34762e-08
1.8563e-06
0.000333434
0.942292
0.974239
0.0206679
4.14189e-05
2.23994e-07
8.32692e-10
4.2267e-13
6.85569e-16
5.49454e-19
1.1502e-22
-1.44986e-26
-1.55652e-30
-5.22452e-34
-1.44239e-38
7.60298e-11
1.07595e-09
1.15316e-09
1.35597e-08
1.86242e-06
0.249018
0.961708
0.231035
0.000230411
1.83861e-06
9.75903e-09
6.89513e-12
1.20491e-14
1.32991e-17
3.41723e-21
-4.12758e-25
-6.5358e-29
-2.65367e-32
-8.15656e-37
6.74234e-11
8.19056e-11
1.26629e-08
7.508e-09
2.0318e-08
3.83655e-06
0.932068
0.428896
0.000440768
4.4853e-06
2.98094e-08
2.8296e-11
5.81134e-14
9.701e-17
2.89875e-20
5.86853e-25
-2.72133e-28
-2.54201e-31
-8.68852e-36
9.67905e-10
5.29593e-11
3.88537e-08
1.56835e-08
1.56835e-08
4.16252e-08
0.813921
0.589822
0.000711989
8.37863e-06
6.31847e-08
9.50606e-11
1.65822e-13
3.99971e-16
1.79661e-19
2.39494e-23
2.82886e-27
-8.10451e-31
-2.77948e-35
1.1785e-10
1.38715e-08
1.20006e-08
6.64852e-07
4.40032e-07
6.94773e-08
0.676789
0.537939
0.000691653
8.89294e-06
7.02833e-08
1.09386e-10
2.0898e-13
8.87177e-16
6.05962e-19
1.53522e-22
1.66845e-26
-6.20878e-32
-1.96261e-35
2.08319e-09
9.07888e-09
7.40152e-09
7.67688e-06
3.82802e-07
1.62931e-07
0.665618
0.367297
0.000438283
5.49663e-06
4.13595e-08
5.45212e-11
1.7648e-13
1.19304e-15
6.51477e-19
2.07385e-22
2.66321e-26
1.70037e-30
5.10274e-36
1.89367e-09
7.98086e-09
7.40284e-09
2.05225e-05
1.7083e-06
2.12401e-07
0.680541
0.142078
0.000181102
2.00411e-06
1.33687e-08
1.70465e-11
2.58577e-13
5.49938e-16
3.5762e-19
1.79278e-22
3.5307e-26
4.17773e-30
7.13005e-35
2.27404e-09
8.15424e-09
3.60206e-06
2.06277e-05
1.72591e-06
0.234199
0.65847
0.00311889
4.22198e-05
4.24747e-07
2.1108e-09
2.83641e-12
6.79692e-14
1.14709e-16
9.56965e-20
6.11976e-23
1.54885e-26
1.49663e-30
4.25813e-35
-1.05933e-09
1.21527e-05
1.57316e-05
6.21939e-06
2.81064e-06
0.549689
0.155452
0.000351928
5.29235e-06
3.896e-08
1.59929e-10
1.76232e-12
7.68782e-15
1.24732e-17
1.21447e-20
8.32048e-24
2.1746e-27
2.17388e-31
7.43893e-36
0.000363188
0.00126675
5.3047e-06
4.43171e-06
0.469114
0.427269
0.00131466
3.06753e-05
3.77154e-07
2.19311e-09
7.04732e-12
1.63507e-13
5.10011e-16
8.31417e-19
9.34536e-22
6.24633e-25
1.51036e-28
1.84803e-32
6.16606e-37
0.00139832
0.00248354
0.000248585
0.359293
0.463742
0.00447784
0.000103797
1.72619e-06
1.38891e-08
7.20876e-11
1.8096e-12
7.13054e-15
1.9958e-17
3.4776e-20
4.49334e-23
2.77139e-26
7.09778e-30
9.12017e-34
2.91914e-38
9.50533e-05
0.000115524
0.119793
0.422374
0.0259069
0.000224854
4.73383e-06
5.14178e-08
3.71897e-10
7.9847e-12
5.80603e-14
2.22296e-16
5.98264e-19
1.22457e-21
1.38801e-24
7.19122e-28
2.1922e-31
2.75617e-35
8.44846e-40
0.000129287
0.000133193
0.00201766
0.00752678
0.000283009
7.78145e-06
1.22165e-07
1.03821e-09
7.2228e-12
2.66943e-13
1.43275e-15
5.57933e-18
1.5946e-20
2.8255e-23
2.78261e-26
1.5889e-29
4.62539e-33
5.19538e-37
1.61111e-41
4.38323e-05
0.155885
0.000172761
0.000145884
9.37452e-06
2.06213e-07
1.82048e-09
1.65521e-11
6.26482e-13
5.60039e-15
2.97983e-17
1.22268e-19
3.41636e-22
5.0093e-25
4.87239e-28
2.61748e-31
6.53887e-35
6.78597e-39
2.16397e-43
6.7415e-05
0.503049
4.74502e-05
5.35753e-06
1.88457e-07
2.25871e-09
3.04088e-11
8.82868e-13
1.15597e-14
1.05116e-16
6.40396e-19
2.35183e-21
5.00851e-24
7.5447e-27
6.60248e-30
2.97959e-33
6.32416e-37
6.83022e-41
2.13748e-45
9.41112e-05
0.509795
0.509135
4.17468e-06
3.13732e-09
4.15946e-11
1.25268e-12
1.43582e-14
2.23842e-16
2.56531e-18
1.06048e-20
2.98225e-23
6.73085e-26
8.78044e-29
6.05253e-32
2.41387e-35
5.1744e-39
5.35282e-43
1.54329e-47
0.000119884
0.514521
0.514363
0.00122802
8.01688e-08
7.28449e-13
1.5347e-14
2.76064e-16
5.48707e-18
3.40975e-20
1.37177e-22
4.26591e-25
7.43595e-28
7.4659e-31
4.46853e-34
1.73106e-37
3.67248e-41
3.36053e-45
8.99195e-50
0.000986003
0.08001
0.0110244
0.000732542
-3.53562e-11
9.91629e-15
2.27127e-16
4.72452e-18
6.76659e-20
4.96315e-22
1.77887e-24
3.88828e-27
6.12874e-30
5.92155e-33
3.20376e-36
1.23716e-39
2.39031e-43
2.0777e-47
5.65434e-52
4.82705e-05
0.000525023
0.000193261
-2.07485e-07
-9.79066e-12
1.443e-16
3.14725e-18
4.27257e-20
8.18193e-22
5.17518e-24
1.26811e-26
2.72651e-29
4.63253e-32
4.13485e-35
2.15159e-38
7.50066e-42
1.4165e-45
1.30509e-49
3.60234e-54
7.12185e-08
1.08051e-05
3.1326e-06
-2.57937e-09
-1.4387e-13
1.61232e-18
2.6131e-20
3.55988e-22
8.19096e-24
3.3476e-26
8.46443e-29
2.08576e-31
3.16019e-34
2.37726e-37
1.22253e-40
4.25939e-44
8.27044e-48
7.25228e-52
2.0308e-56
3.17251e-11
3.86624e-08
1.58495e-08
-2.20093e-11
-4.51071e-14
1.34347e-20
2.10574e-22
2.45987e-24
4.22063e-26
1.80346e-28
5.99001e-31
1.24438e-33
1.44278e-36
1.21082e-39
6.90614e-43
2.44279e-46
4.47868e-50
3.76157e-54
1.10794e-58
8.54161e-14
3.51955e-11
1.70071e-11
-9.45293e-13
-1.87599e-15
1.24831e-22
1.49074e-24
1.29644e-26
1.43889e-28
1.04856e-30
2.81722e-33
4.24559e-36
6.77828e-39
6.84677e-42
3.66944e-45
1.25154e-48
2.27121e-52
2.02179e-56
6.44691e-61
5.02146e-16
8.30581e-14
2.86501e-14
-1.64566e-14
-6.44395e-17
5.3979e-25
7.81754e-27
7.18533e-29
8.92026e-31
3.21346e-33
7.60955e-36
2.49165e-38
3.53828e-41
2.99613e-44
1.68409e-47
5.73082e-51
1.09747e-54
1.00466e-58
3.39058e-63
2.70185e-19
6.1551e-17
3.96624e-17
-3.56521e-16
-1.61122e-18
1.55841e-27
3.51313e-29
3.20672e-31
3.44151e-33
1.29973e-35
3.85688e-38
9.31919e-41
1.24814e-43
1.18396e-46
7.35559e-50
2.64746e-53
5.06991e-57
4.54982e-61
1.6688e-65
1.13227e-22
2.36028e-20
4.77057e-21
-5.47363e-18
-3.00302e-20
1.69825e-30
1.28859e-31
1.12919e-33
1.25378e-35
5.1089e-38
1.41537e-40
2.67589e-43
4.60968e-46
5.08675e-49
3.17936e-52
1.13455e-55
2.17857e-59
2.05423e-63
8.32865e-68
-1.15042e-24
-1.83529e-24
-3.85478e-21
-6.08957e-20
-4.28296e-22
4.78296e-33
3.72637e-34
4.2564e-36
4.51696e-38
1.75551e-40
4.70003e-43
1.10418e-45
1.98536e-48
2.00083e-51
1.22267e-54
4.41303e-58
9.08688e-62
9.07028e-66
3.99836e-70
-5.28911e-26
-2.69485e-24
-7.55346e-23
-5.22378e-22
-4.86361e-24
1.22962e-35
9.19794e-37
1.29691e-38
1.35442e-40
5.53893e-43
1.61404e-45
4.1883e-48
6.50156e-51
6.76082e-54
4.45774e-57
1.71782e-60
3.66612e-64
3.66286e-68
1.74795e-72
-3.4035e-28
-2.19494e-26
-6.06216e-25
-3.63046e-24
-4.56852e-26
1.76628e-38
1.99591e-39
3.45561e-41
3.68523e-43
1.61246e-45
5.25209e-48
1.13242e-50
2.06379e-53
2.42948e-56
1.65095e-59
6.51377e-63
1.39973e-66
1.42466e-70
7.48561e-75
-1.27999e-30
-1.09254e-28
-3.47112e-27
-2.13435e-26
-3.67999e-28
3.16164e-41
3.79051e-42
8.46075e-44
9.25864e-46
4.33889e-48
1.55891e-50
3.97057e-53
7.71106e-56
8.79179e-59
5.79573e-62
2.28919e-65
5.14598e-69
5.47348e-73
3.12314e-77
-3.35888e-33
-3.99348e-31
-1.58283e-29
-1.10015e-28
-2.62504e-30
4.92608e-44
6.49134e-45
1.79997e-46
2.13893e-48
1.22972e-50
4.8416e-53
1.41889e-55
2.5826e-58
2.87493e-61
1.92859e-64
7.9686e-68
1.856e-71
1.97988e-75
1.21173e-79
-6.47172e-36
-1.14722e-33
-6.06874e-32
-5.1254e-31
-1.70703e-32
6.37678e-47
1.23015e-47
4.28529e-49
5.66065e-51
3.51752e-53
1.47719e-55
4.17936e-58
7.76068e-61
9.28209e-64
6.51903e-67
2.76622e-70
6.40027e-74
6.76048e-78
4.48319e-82
-9.06811e-39
-2.65904e-36
-2.02393e-34
-2.21773e-33
-1.03904e-34
8.0587e-50
2.42997e-50
9.72843e-52
1.49677e-53
9.9155e-56
4.25503e-58
1.25615e-60
2.56623e-63
3.11047e-66
2.18319e-69
9.14582e-73
2.1231e-76
2.27444e-80
1.64002e-84
-8.51614e-42
-4.94783e-39
-5.99364e-37
-9.13835e-36
-6.06516e-37
9.25958e-53
4.3607e-53
2.03946e-54
3.66401e-56
2.60153e-58
1.18714e-60
3.91561e-63
8.07655e-66
9.61722e-69
6.70177e-72
2.81623e-75
6.61601e-79
7.08907e-83
5.53422e-87
1
1
1
1
1
1
1
1
1
1
1
1
1
1
1
1
1
1
1
0.983448
0.770657
0.998676
0.998462
1
1
1
1
1
1
1
1
1
1
1
1
1
1
1
1
1
1
1
1
0.852396
0.887815
0.998755
1
1
1
1
1
1
1
1
1
1
1
1
1
1
1
1
1
1
1
1
0.999999
0.776307
0.99786
1
1
1
1
1
1
1
1
1
1
1
1
1
1
1
1
1
1
1
1
1
0.992585
0.999572
1
1
1
1
1
1
1
1
1
1
1
1
1
1
1
1
1
1
1
1
1
0.999999
1
1
1
1
1
1
1
1
1
1
1
1
1
1
1
1
1
1
1
1
1
1
1
1
1
1
1
1
1
1
1
1
1
1
1
1
1
1
1
1
1
1
1
1
1
1
1
1
1
1
1
1
1
1
1
1
1
1
1
1
1
1
1
1
1
1
1
1
1
1
4.84677e-36
6.32866e-36
2.1465e-37
1.04027e-39
7.02006e-43
1.08251e-45
1.69496e-48
1.52187e-51
7.82571e-55
2.08367e-58
1.71552e-62
1.29068e-67
4.16685e-70
1.20538e-75
2.48333e-79
4.2571e-84
3.08937e-89
9.91266e-95
1.23874e-95
1.1508e-31
2.52347e-31
6.37829e-32
1.85532e-34
1.11562e-37
2.01199e-40
2.94326e-43
2.8604e-46
1.90354e-49
8.39544e-53
2.14132e-56
1.04591e-60
4.28647e-64
5.04219e-69
3.68541e-73
1.62317e-77
3.31606e-82
1.5458e-87
1.20595e-92
8.92318e-28
6.15799e-27
1.04822e-27
1.48892e-30
1.17735e-33
1.96746e-36
2.51715e-39
2.23451e-42
1.34088e-45
5.07901e-49
9.20446e-53
8.64373e-58
4.62321e-61
1.66621e-65
1.07556e-69
3.59799e-74
5.76878e-79
1.7955e-84
2.26304e-89
4.91589e-24
1.1496e-22
9.36504e-24
6.64654e-27
4.72721e-30
6.07855e-33
6.86985e-36
5.88306e-39
3.47212e-42
1.27152e-45
2.0544e-49
2.16111e-54
3.37915e-58
3.52611e-62
2.07076e-66
6.1311e-71
8.05841e-76
1.74258e-81
6.49277e-87
1.15068e-20
1.62315e-18
1.01357e-19
2.50227e-23
7.5932e-27
7.63802e-30
8.295e-33
6.60397e-36
3.8174e-39
1.43227e-42
2.5578e-46
2.52352e-51
3.9335e-55
3.93811e-59
2.30026e-63
5.97309e-68
6.53213e-73
5.94824e-79
8.89301e-84
1.67814e-17
2.23697e-16
8.86668e-18
1.54159e-21
1.31941e-24
1.99931e-27
1.89916e-30
1.54804e-33
1.08296e-36
5.122e-40
1.3043e-43
4.80539e-48
1.80271e-52
1.9118e-56
1.21971e-60
3.14899e-65
3.25592e-70
3.31829e-76
7.52778e-81
3.64161e-14
7.05905e-15
8.8396e-18
6.78726e-21
2.83829e-23
8.50845e-26
1.35644e-28
1.20863e-31
6.00467e-35
2.04742e-38
1.50018e-42
6.23371e-47
9.54682e-51
9.68355e-55
5.96884e-59
1.9817e-63
2.16238e-68
2.09703e-74
2.4471e-78
5.33667e-10
2.56396e-13
5.75022e-17
4.83635e-20
1.1428e-21
1.13107e-23
4.2913e-26
6.29887e-29
1.83206e-32
4.9517e-37
1.10247e-40
2.00766e-44
2.53401e-48
2.14276e-52
9.96116e-57
1.40786e-61
1.13779e-66
4.185e-72
6.52314e-77
1
1
1
1
1
1
1
1
1
1
1
1
1
1
1
1
1
1
1
1
1
1
0.999999
1
1
1
1
1
1
1
1
1
1
1
1
1
1
1
1
1
1
1
1
1
1
0.999976
1
1
1
1
1
1
1
1
1
1
1
1
1
1
1
1
1
1
1
1
1
1
1
1
1
1
1
1
1
1
1
1
1
1
1
1
0.999997
0.999984
0.999953
0.999788
0.997553
1
1
1
1
1
1
1
1
1
1
1
1
1
1
1
0.999998
0.999979
0.999709
0.853608
0.374328
0.0308782
0.000175778
5.10149e-05
0.00445651
0.0622986
0.285183
0.740471
0.999999
1
1
1
1
1
1
0.999999
0.999997
0.999982
0.999844
0.966962
0.531228
0.000110829
3.14436e-06
7.46451e-05
0.00059045
0.00229671
1.14879e-05
4.49961e-07
1.92503e-06
1.37663e-05
8.73584e-05
0.00292487
0.999995
0.999995
0.999993
0.999986
0.999974
0.999904
0.999659
0.956161
0.658401
0.142984
2.59847e-06
-1.65235e-07
3.98424e-09
4.66113e-08
0.00271173
0.00271173
2.392e-06
5.07123e-09
6.4103e-10
4.89153e-09
3.19438e-08
2.45987e-07
2.16187e-06
0.8888
0.938291
0.878819
0.759312
0.543413
0.25546
0.0337544
-6.88338e-10
-4.56231e-09
-1.09345e-10
1.184e-09
2.69262e-09
3.68318e-09
0.00103065
0.00270717
3.17398e-06
7.52245e-09
3.76754e-10
4.12273e-10
4.59332e-10
5.01397e-10
7.9365e-10
4.10714e-09
6.62044e-20
-6.46527e-23
3.15687e-26
6.16577e-29
-7.2089e-13
-3.8444e-12
-1.13006e-11
-9.64902e-17
1.99282e-11
2.91388e-11
9.94413e-10
6.02663e-09
4.17612e-09
1.94628e-05
0.000194078
4.87515e-08
4.85544e-10
3.21005e-10
3.94887e-10
4.63811e-10
4.63804e-10
3.96843e-10
1.79414e-10
-4.98432e-18
-6.8036e-16
-2.85335e-14
-4.62723e-13
-3.49732e-12
-1.24832e-11
-2.17185e-11
-9.52016e-14
2.40297e-10
1.37973e-10
1.54464e-07
5.64358e-06
3.37093e-07
2.69999e-05
2.86674e-05
7.12118e-08
3.64844e-10
1.94547e-10
1.71227e-10
1.17134e-10
7.21943e-11
6.04017e-11
7.43256e-11
-8.50488e-18
-1.37396e-15
-5.67366e-14
-8.33397e-13
-5.13674e-12
-1.10959e-11
-8.57511e-12
-7.97736e-12
1.17923e-08
1.20569e-08
0.000405818
0.000575155
0.000206687
7.88217e-05
0.00022155
5.62733e-08
3.06959e-10
4.46711e-11
2.22096e-11
6.58229e-12
1.5474e-12
1.28953e-12
2.8204e-12
-1.10071e-17
-1.94624e-15
-7.66328e-14
-1.013e-12
-4.80839e-12
-2.01088e-12
-5.3164e-16
-9.53571e-12
6.2993e-07
1.46148e-05
0.000137361
0.000574932
0.000420111
0.000241015
3.25829e-05
4.97701e-10
1.27481e-11
5.85463e-12
8.82743e-13
7.16522e-14
3.78041e-14
1.32915e-13
1.69194e-12
-1.16049e-17
-2.05257e-15
-7.52541e-14
-8.65215e-13
-2.77732e-12
1.59089e-11
1.72243e-12
0.000150679
0.000173821
8.93465e-07
7.522e-07
0.000110647
8.38829e-05
3.82655e-09
6.78984e-07
9.2921e-12
7.32548e-12
3.60636e-13