/*--------------------------------*- C++ -*----------------------------------*\
| =========                 |                                                 |
| \\      /  F ield         | OpenFOAM: The Open Source CFD Toolbox           |
|  \\    /   O peration     | Version:  v1912                                 |
|   \\  /    A nd           | Website:  www.openfoam.com                      |
|    \\/     M anipulation  |                                                 |
\*---------------------------------------------------------------------------*/
FoamFile
{
    version     2.0;
    format      ascii;
    class       surfaceScalarField;
    location    "0.25";
    object      alphaPhi0.water;
}
// * * * * * * * * * * * * * * * * * * * * * * * * * * * * * * * * * * * * * //

dimensions      [0 3 -1 0 0 0 0];
oriented        oriented;


internalField   nonuniform List<scalar> 
17936
(
-4.738e-08
7.86418e-08
-3.12618e-08
-1.06723e-06
2.70416e-06
-1.63693e-06
-4.39299e-06
5.9129e-06
-1.51991e-06
-7.22711e-06
8.38673e-06
-1.15962e-06
-9.46217e-06
1.05098e-05
-1.04767e-06
-1.15633e-05
1.26365e-05
-1.07315e-06
-1.37307e-05
1.48411e-05
-1.11039e-06
-1.59608e-05
1.70833e-05
-1.12244e-06
-1.82025e-05
1.93134e-05
-1.11089e-06
-2.0411e-05
2.14904e-05
-1.07941e-06
-2.25461e-05
2.35714e-05
-1.02529e-06
-2.45592e-05
2.55009e-05
-9.41631e-07
-2.63862e-05
2.72037e-05
-8.17469e-07
-2.79398e-05
2.85793e-05
-6.39548e-07
-2.91044e-05
2.94919e-05
-3.87546e-07
-2.9712e-05
2.9696e-05
1.60512e-08
-2.93065e-05
2.84166e-05
8.8991e-07
-2.6837e-05
2.43061e-05
2.53095e-06
-2.04903e-05
1.5091e-05
5.39929e-06
-8.22458e-06
7.6496e-07
7.45962e-06
3.89215e-06
-4.37701e-06
1.01286e-06
8.08703e-06
-1.69544e-05
7.93228e-06
2.18694e-05
-1.46511e-05
-7.21805e-06
-1.00341e-07
1.0519e-07
-4.84928e-09
-1.11263e-06
2.76697e-06
3.29432e-06
-4.94866e-06
-4.46713e-06
5.99748e-06
3.06159e-06
-4.59194e-06
-7.32571e-06
8.50408e-06
2.34324e-06
-3.52162e-06
-9.60209e-06
1.06744e-05
2.11861e-06
-3.19087e-06
-1.17528e-05
1.28502e-05
2.16812e-06
-3.26553e-06
-1.39676e-05
1.51002e-05
2.24187e-06
-3.37448e-06
-1.62415e-05
1.73851e-05
2.26594e-06
-3.40957e-06
-1.85256e-05
1.9658e-05
2.24324e-06
-3.37572e-06
-2.07779e-05
2.18802e-05
2.18105e-06
-3.28343e-06
-2.29598e-05
2.40103e-05
2.07405e-06
-3.12451e-06
-2.50248e-05
2.59947e-05
1.90863e-06
-2.87855e-06
-2.69104e-05
2.77606e-05
1.66321e-06
-2.51343e-06
-2.85324e-05
2.92114e-05
1.31185e-06
-1.99083e-06
-2.97806e-05
3.02215e-05
8.17347e-07
-1.25825e-06
-3.05135e-05
3.06267e-05
1.22394e-07
-2.35593e-07
-3.05413e-05
3.02359e-05
-9.3107e-07
1.23648e-06
-2.97234e-05
2.90663e-05
-2.90661e-06
3.56378e-06
-2.84065e-05
2.78574e-05
-7.39611e-06
7.94527e-06
-2.70625e-05
2.47629e-05
-1.41766e-05
1.64761e-05
-1.8849e-05
8.46259e-06
-1.08333e-05
2.122e-05
1.83678e-06
-7.50459e-06
-1.38545e-05
1.72036e-05
9.81965e-06
-8.05272e-06
1.39154e-05
-1.37162e-05
-9.53479e-08
6.68858e-08
2.8462e-08
-1.15617e-06
2.80418e-06
6.60007e-06
-8.24807e-06
-4.47741e-06
5.97437e-06
6.10772e-06
-7.60468e-06
-7.27651e-06
8.4425e-06
4.69446e-06
-5.86045e-06
-9.54109e-06
1.06224e-05
4.26704e-06
-5.34838e-06
-1.17134e-05
1.28233e-05
4.36843e-06
-5.47835e-06
-1.39513e-05
1.50922e-05
4.51069e-06
-5.65156e-06
-1.62399e-05
1.73889e-05
4.55546e-06
-5.70447e-06
-1.85345e-05
1.96726e-05
4.51047e-06
-5.64853e-06
-2.07989e-05
2.19091e-05
4.38901e-06
-5.49922e-06
-2.29981e-05
2.40596e-05
4.17956e-06
-5.2411e-06
-2.50871e-05
2.60721e-05
3.85477e-06
-4.8398e-06
-2.70052e-05
2.78754e-05
3.37206e-06
-4.24229e-06
-2.86702e-05
2.93756e-05
2.68105e-06
-3.38645e-06
-2.99756e-05
3.04523e-05
1.71464e-06
-2.19138e-06
-3.07862e-05
3.0955e-05
3.74159e-07
-5.42946e-07
-3.09359e-05
3.0706e-05
-1.52111e-06
1.75101e-06
-3.02458e-05
2.95437e-05
-4.35575e-06
5.05779e-06
-2.86083e-05
2.75148e-05
-8.86853e-06
9.96204e-06
-2.65206e-05
2.61183e-05
-1.67205e-05
1.71228e-05
-2.6105e-05
2.47765e-05
-2.68568e-05
2.81853e-05
-2.10375e-05
1.42091e-05
-2.37083e-05
3.15302e-05
-8.78178e-06
5.00962e-06
1.37431e-05
-8.32987e-06
-1.52121e-08
-6.38543e-08
7.90664e-08
-1.22032e-06
2.85844e-06
9.89186e-06
-1.153e-05
-4.49105e-06
5.93909e-06
9.07892e-06
-1.0527e-05
-7.20469e-06
8.35501e-06
7.0187e-06
-8.16903e-06
-9.45664e-06
1.05526e-05
6.43624e-06
-7.5322e-06
-1.16626e-05
1.27909e-05
6.5968e-06
-7.72512e-06
-1.39345e-05
1.50878e-05
6.79821e-06
-7.95152e-06
-1.62456e-05
1.74037e-05
6.85762e-06
-8.01572e-06
-1.85585e-05
1.97067e-05
6.79116e-06
-7.93939e-06
-2.08449e-05
2.1969e-05
6.61568e-06
-7.73976e-06
-2.30742e-05
2.41548e-05
6.31126e-06
-7.39181e-06
-2.52042e-05
2.62146e-05
5.83631e-06
-6.84665e-06
-2.71766e-05
2.80799e-05
5.12749e-06
-6.03075e-06
-2.89123e-05
2.96605e-05
4.11127e-06
-4.85948e-06
-3.03093e-05
3.08422e-05
2.69366e-06
-3.22654e-06
-3.12412e-05
3.14873e-05
7.4739e-07
-9.93486e-07
-3.15616e-05
3.14474e-05
-1.92531e-06
2.03955e-06
-3.11327e-05
3.06156e-05
-5.66204e-06
6.17913e-06
-2.99094e-05
2.90441e-05
-1.09527e-05
1.1818e-05
-2.80514e-05
2.69988e-05
-1.80309e-05
1.90835e-05
-2.62947e-05
2.65846e-05
-2.77168e-05
2.74268e-05
-2.77053e-05
2.7758e-05
-3.49839e-05
3.49312e-05
-2.33198e-05
1.32609e-05
4.17357e-07
9.84336e-06
1.74315e-07
-3.19988e-07
1.45673e-07
-1.30634e-06
2.92571e-06
1.31601e-05
-1.47795e-05
-4.50288e-06
5.88958e-06
1.19457e-05
-1.33324e-05
-7.11287e-06
8.24813e-06
9.31163e-06
-1.04469e-05
-9.35707e-06
1.04729e-05
8.63762e-06
-9.7534e-06
-1.16063e-05
1.27562e-05
8.86413e-06
-1.0014e-05
-1.39173e-05
1.50846e-05
9.11185e-06
-1.02791e-05
-1.6254e-05
1.74229e-05
9.17917e-06
-1.0348e-05
-1.8589e-05
1.975e-05
9.09384e-06
-1.02549e-05
-2.09033e-05
2.20452e-05
8.8724e-06
-1.00143e-05
-2.31715e-05
2.42767e-05
8.48408e-06
-9.58925e-06
-2.53548e-05
2.63981e-05
7.87266e-06
-8.91604e-06
-2.73981e-05
2.83448e-05
6.95459e-06
-7.90128e-06
-2.92267e-05
3.00313e-05
5.6344e-06
-6.43894e-06
-3.07442e-05
3.135e-05
3.79419e-06
-4.40003e-06
-3.18325e-05
3.2175e-05
1.28608e-06
-1.62859e-06
-3.23615e-05
3.23785e-05
-2.0893e-06
2.07228e-06
-3.22163e-05
3.18717e-05
-6.60988e-06
6.95447e-06
-3.13506e-05
3.06694e-05
-1.25862e-05
1.32673e-05
-2.98574e-05
2.89358e-05
-2.0074e-05
2.09957e-05
-2.78772e-05
2.67953e-05
-2.79277e-05
2.90096e-05
-2.62243e-05
2.57963e-05
-3.45615e-05
3.49895e-05
-2.26462e-05
1.36991e-05
-1.97207e-05
2.86679e-05
5.04192e-07
-7.29474e-07
2.25282e-07
-1.40788e-06
2.99775e-06
1.63855e-05
-1.79753e-05
-4.50675e-06
5.82437e-06
1.46852e-05
-1.60029e-05
-7.00416e-06
8.12737e-06
1.15756e-05
-1.26988e-05
-9.24762e-06
1.03861e-05
1.08803e-05
-1.20188e-05
-1.15442e-05
1.27155e-05
1.11748e-05
-1.23462e-05
-1.38937e-05
1.50744e-05
1.14532e-05
-1.26339e-05
-1.62555e-05
1.7436e-05
1.15226e-05
-1.27031e-05
-1.86149e-05
1.97911e-05
1.14233e-05
-1.25995e-05
-2.09624e-05
2.21258e-05
1.11666e-05
-1.23301e-05
-2.32776e-05
2.44125e-05
1.07087e-05
-1.18437e-05
-2.55254e-05
2.6609e-05
9.97868e-06
-1.10623e-05
-2.76553e-05
2.8655e-05
8.87332e-06
-9.87301e-06
-2.95972e-05
3.04701e-05
7.27618e-06
-8.14904e-06
-3.126e-05
3.19525e-05
5.04752e-06
-5.74004e-06
-3.25324e-05
3.29843e-05
2.02411e-06
-2.47599e-06
-3.32936e-05
3.34481e-05
-1.9874e-06
1.83294e-06
-3.34383e-05
3.32592e-05
-7.21528e-06
7.39435e-06
-3.29105e-05
3.23947e-05
-1.38641e-05
1.43799e-05
-3.17122e-05
3.08555e-05
-2.18813e-05
2.2738e-05
-2.97904e-05
2.83564e-05
-3.03517e-05
3.17857e-05
-2.63571e-05
2.37659e-05
-3.65889e-05
3.918e-05
-1.97374e-05
1.21284e-05
-3.676e-05
4.4369e-05
9.97666e-07
-1.31062e-06
3.1295e-07
-1.51937e-06
3.06972e-06
1.95467e-05
-2.1097e-05
-4.50133e-06
5.74737e-06
1.72847e-05
-1.85307e-05
-6.8871e-06
8.00357e-06
1.38179e-05
-1.49343e-05
-9.13891e-06
1.03011e-05
1.31692e-05
-1.43314e-05
-1.14826e-05
1.26732e-05
1.35275e-05
-1.47181e-05
-1.38663e-05
1.50592e-05
1.38209e-05
-1.50139e-05
-1.62518e-05
1.74447e-05
1.38896e-05
-1.50825e-05
-1.86382e-05
1.98319e-05
1.37841e-05
-1.49778e-05
-2.10242e-05
2.22126e-05
1.35056e-05
-1.4694e-05
-2.33938e-05
2.45635e-05
1.29955e-05
-1.41651e-05
-2.57168e-05
2.68474e-05
1.21686e-05
-1.32991e-05
-2.79478e-05
2.90093e-05
1.09026e-05
-1.19641e-05
-3.00218e-05
3.0974e-05
9.06027e-06
-1.00125e-05
-3.1853e-05
3.26447e-05
6.48076e-06
-7.2725e-06
-3.33347e-05
3.39082e-05
2.98738e-06
-3.56087e-06
-3.43511e-05
3.46513e-05
-1.60659e-06
1.30641e-06
-3.47985e-05
3.47846e-05
-7.49161e-06
7.50552e-06
-3.46035e-05
3.42483e-05
-1.48165e-05
1.51717e-05
-3.37062e-05
3.29453e-05
-2.35547e-05
2.43157e-05
-3.18987e-05
3.04349e-05
-3.32523e-05
3.47161e-05
-2.82192e-05
2.48001e-05
-4.23728e-05
4.57919e-05
-1.97674e-05
1.2229e-05
-5.18514e-05
5.93899e-05
1.67057e-06
-2.07919e-06
4.08625e-07
-1.63862e-06
3.13819e-06
2.26235e-05
-2.41231e-05
-4.48522e-06
5.66172e-06
1.97414e-05
-2.09179e-05
-6.76866e-06
7.88499e-06
1.60498e-05
-1.71662e-05
-9.03816e-06
1.02229e-05
1.55051e-05
-1.66899e-05
-1.14242e-05
1.263e-05
1.59169e-05
-1.71228e-05
-1.38349e-05
1.50384e-05
1.62123e-05
-1.74157e-05
-1.62421e-05
1.7448e-05
1.62818e-05
-1.74878e-05
-1.86574e-05
1.98705e-05
1.61809e-05
-1.73939e-05
-2.10861e-05
2.23024e-05
1.5896e-05
-1.71123e-05
-2.35168e-05
2.47255e-05
1.53538e-05
-1.65624e-05
-2.59245e-05
2.71083e-05
1.44555e-05
-1.56392e-05
-2.82702e-05
2.94023e-05
1.30598e-05
-1.41919e-05
-3.04948e-05
3.15371e-05
1.10083e-05
-1.20506e-05
-3.25166e-05
3.34193e-05
8.11809e-06
-9.02083e-06
-3.42307e-05
3.49358e-05
4.1987e-06
-4.90381e-06
-3.55203e-05
3.5971e-05
-9.31479e-07
4.8081e-07
-3.62781e-05
3.64325e-05
-7.43506e-06
7.28062e-06
-3.64263e-05
3.62486e-05
-1.54403e-05
1.5618e-05
-3.58802e-05
3.52857e-05
-2.50032e-05
2.55978e-05
-3.43946e-05
3.30887e-05
-3.61303e-05
3.74362e-05
-3.11333e-05
2.80716e-05
-4.91481e-05
5.22098e-05
-2.3095e-05
1.59211e-05
-6.70215e-05
7.41954e-05
3.32327e-41
-2.74527e-40
2.04244e-41
-5.91514e-42
2.01832e-41
-8.88848e-42
-9.09993e-42
1.61838e-42
-1.74954e-42
-2.17922e-43
1.37402e-44
-5.03506e-44
-3.28232e-46
7.0127e-48
-4.15548e-47
-2.41413e-49
1.10836e-50
-3.77883e-50
-5.07162e-52
2.17744e-53
-7.21252e-53
-7.76911e-55
2.39399e-56
-8.9835e-56
-6.17277e-58
1.45676e-59
-5.45489e-59
-2.84041e-61
4.89268e-63
-1.57414e-62
-6.36775e-65
7.78913e-67
1.17694e-67
-7.99521e-69
1.32404e-70
9.59588e-71
-8.92456e-73
6.34403e-74
2.1642e-74
-1.12991e-76
6.36842e-78
3.66313e-78
-7.03826e-81
5.83542e-82
3.62372e-82
-3.29734e-85
2.69647e-86
2.33466e-86
-8.61857e-90
6.52108e-91
8.4631e-91
-9.25133e-95
1.14013e-95
1.29642e-95
-1.88676e-100
7.83202e-101
5.23072e-101
6.43179e-38
-3.15139e-36
5.55118e-37
-2.30341e-37
7.17019e-37
3.9279e-39
-1.20937e-36
-1.17372e-36
5.72104e-37
2.32489e-39
-9.63407e-37
-8.87933e-38
3.38119e-39
6.36291e-41
-1.90986e-38
-5.33713e-41
1.24429e-42
4.39298e-44
-1.16278e-41
-5.1808e-44
2.56145e-45
4.4681e-47
-1.29049e-44
-1.1603e-46
4.70655e-48
7.60539e-50
-2.06209e-47
-1.65732e-49
5.37107e-51
8.5626e-53
-2.14887e-50
-1.54848e-52
4.16889e-54
5.46996e-56
-1.31524e-53
-9.90202e-56
2.20753e-57
1.71806e-59
-3.92446e-57
-4.2553e-59
7.98852e-61
-9.88481e-64
2.43136e-61
-1.24402e-62
2.09125e-64
-2.49868e-66
6.62124e-64
-2.32677e-66
5.98581e-68
-1.08135e-69
2.71686e-67
-4.44567e-70
2.84778e-71
-2.55962e-73
7.63043e-71
-4.81421e-74
6.05037e-75
-9.47573e-77
1.19193e-74
-3.24219e-78
6.27556e-79
-8.24577e-81
1.08841e-78
-1.08625e-82
2.07825e-83
-4.4882e-85
5.2892e-83
-1.88967e-87
4.96781e-88
-1.25434e-89
1.39228e-87
-7.25183e-93
8.94626e-94
-9.22829e-95
6.4419e-93
2.07986e-34
-6.02592e-32
1.63928e-33
-2.26114e-33
1.78604e-32
2.66183e-34
-4.33782e-32
-4.04539e-32
1.33268e-32
2.35637e-34
-4.32168e-32
-1.11682e-33
2.66381e-35
2.91439e-36
-3.18411e-34
-4.38488e-37
1.28953e-38
1.68119e-39
-1.76676e-37
-5.64048e-40
2.58956e-41
2.08109e-42
-2.26847e-40
-1.07999e-42
4.08307e-44
3.15802e-45
-3.19159e-43
-1.3721e-45
4.29816e-47
3.11609e-48
-2.99074e-46
-1.19268e-48
3.08318e-50
1.82149e-51
-1.69711e-49
-6.96973e-52
1.46669e-53
5.14658e-55
-4.66111e-53
-2.6753e-55
4.68697e-57
-2.85309e-59
2.47197e-57
-6.60185e-59
1.26549e-60
-7.40845e-62
6.16272e-60
-1.16842e-62
6.35631e-64
-2.87556e-65
2.30091e-63
-1.78919e-66
2.06083e-67
-6.78645e-69
5.22824e-67
-1.72038e-70
3.79376e-71
-9.72224e-73
6.98473e-71
-8.83546e-75
3.04379e-75
-7.73169e-77
5.90781e-75
-3.15238e-79
8.30261e-80
-3.57848e-81
2.33503e-79
-5.78246e-84
1.27993e-84
-7.92542e-86
4.57513e-84
-1.4192e-89
1.86866e-90
-3.1284e-91
1.26417e-89
4.29909e-30
-1.85785e-29
1.51534e-30
-1.20494e-29
2.10725e-28
6.04828e-30
-8.72559e-28
-6.89549e-28
1.70494e-28
6.70618e-30
-1.15052e-27
-8.10586e-30
1.27514e-31
3.0534e-32
-3.48058e-30
-2.07278e-33
5.64919e-35
1.61063e-35
-1.52065e-33
-2.04933e-36
8.01341e-38
1.85974e-38
-1.20203e-36
-3.06402e-39
1.10141e-40
2.32399e-41
-1.27188e-39
-3.65204e-42
1.13232e-43
2.09083e-44
-1.1238e-42
-3.1305e-45
8.06204e-47
1.17934e-47
-6.34924e-46
-1.81609e-48
3.77779e-50
3.22242e-51
-1.73656e-49
-6.84864e-52
1.17272e-53
-1.60705e-55
8.18992e-54
-1.61979e-55
3.60864e-57
-4.06267e-58
2.10314e-56
-2.84579e-59
1.90032e-60
-1.49182e-61
7.64042e-60
-4.0663e-63
5.91564e-64
-3.23106e-65
1.61645e-63
-3.59831e-67
1.04694e-67
-4.07824e-69
1.96494e-67
-2.4977e-71
7.59784e-72
-3.53603e-73
1.75277e-71
-7.79155e-76
1.88623e-76
-1.28818e-77
6.00164e-76
-1.12245e-80
2.17987e-81
-2.19973e-82
9.27068e-81
-1.77299e-86
1.83932e-87
-4.99859e-88
1.6417e-86
2.16744e-24
-2.33266e-24
-6.54068e-27
-1.63263e-26
1.17488e-24
1.23922e-25
-7.7883e-24
-4.56517e-24
1.43474e-24
2.39245e-25
-1.85261e-23
-5.69493e-26
4.77193e-28
6.2662e-28
-5.11578e-26
-4.48931e-30
8.73855e-32
1.38468e-31
-5.59652e-30
-2.55616e-33
9.30244e-35
6.36718e-35
-2.52849e-33
-3.56756e-36
1.28216e-37
6.17787e-38
-2.59395e-36
-4.17489e-39
1.2466e-40
5.40505e-41
-2.08491e-39
-3.39908e-42
8.69841e-44
2.91977e-44
-1.0642e-42
-1.99108e-45
4.1781e-47
7.79374e-48
-2.81727e-46
-7.79331e-49
1.34305e-50
-3.30435e-52
1.04109e-50
-1.92662e-52
4.04233e-54
-9.06831e-55
3.0681e-53
-3.3548e-56
2.31832e-57
-3.28731e-58
1.11613e-56
-4.77613e-60
7.58263e-61
-6.89048e-62
2.33808e-60
-4.15532e-64
1.36976e-64
-8.17428e-66
2.92035e-64
-3.5416e-68
1.02319e-68
-7.45827e-70
2.57396e-68
-9.85955e-73
2.22371e-73
-2.33443e-74
7.85689e-73
-1.20377e-77
2.18155e-78
-3.13869e-79
1.02086e-77
-7.41446e-84
4.64206e-85
-3.15201e-85
7.27007e-84
2.61679e-21
-4.22008e-20
3.45501e-21
-1.02988e-22
4.92969e-22
1.77226e-22
-2.71717e-21
-6.73845e-22
1.37867e-22
2.62184e-22
-8.578e-22
-3.68042e-24
2.44487e-26
5.24546e-25
-8.77315e-25
-3.07722e-28
1.08807e-29
6.04296e-29
-2.68714e-28
-5.39306e-31
2.43305e-32
5.12884e-32
-3.90217e-31
-8.97497e-34
2.90382e-35
5.3477e-35
-4.11622e-34
-8.97595e-37
2.72985e-38
3.87353e-38
-3.02978e-37
-8.07652e-40
2.25692e-41
2.13622e-41
-1.91868e-40
-5.79965e-43
1.33889e-44
6.62294e-45
-7.50716e-44
-2.7582e-46
5.12999e-48
-2.40632e-49
3.55799e-48
-8.19241e-50
1.27163e-51
-8.17968e-52
1.43352e-50
-1.46895e-53
6.86924e-55
-3.02934e-55
5.59403e-54
-2.2156e-57
2.85792e-58
-6.47829e-59
1.24685e-57
-2.43076e-61
6.27384e-62
-8.63241e-63
1.85036e-61
-2.19426e-65
5.80807e-66
-7.70027e-67
1.68058e-65
-6.20829e-70
1.27859e-70
-2.26799e-71
5.15079e-70
-6.84735e-75
1.10363e-75
-2.81077e-76
6.03102e-75
-4.99659e-81
2.56239e-82
-2.14761e-82
4.96119e-81
1.95644e-18
-2.03751e-16
1.6097e-16
-4.0892e-19
7.93894e-20
5.49753e-20
-7.83058e-19
-4.361e-21
8.93755e-23
1.46887e-21
-2.85121e-21
-1.67355e-24
4.73926e-26
9.11963e-25
-1.05138e-24
-2.69581e-27
2.33067e-28
7.91364e-28
-2.88448e-27
-1.82149e-29
1.08326e-30
1.87612e-30
-1.95717e-29
-5.22461e-32
2.24032e-33
2.61127e-33
-5.00183e-32
-8.49841e-35
2.80653e-36
2.35089e-36
-6.09073e-35
-7.40914e-38
1.8594e-39
1.45138e-39
-2.74254e-38
-3.86733e-41
8.43277e-43
5.1144e-43
-5.56204e-42
-1.48975e-44
2.81471e-46
-3.18173e-47
1.93834e-46
-3.5516e-48
1.78592e-49
-1.52084e-49
7.86328e-49
-7.48349e-52
7.80177e-53
-6.20088e-53
3.1963e-52
-1.13141e-55
2.07354e-56
-1.44492e-56
7.48741e-56
-1.35283e-59
3.91194e-60
-2.42678e-60
1.19007e-59
-9.71807e-64
2.42131e-64
-2.15522e-64
9.40961e-64
-3.58984e-68
8.26786e-69
-6.98056e-69
3.46274e-68
-3.16275e-73
7.63107e-74
-8.52121e-74
3.25998e-73
-2.82579e-79
1.65755e-80
-6.81591e-80
3.34446e-79
-4.67326e-12
2.44703e-14
3.10884e-12
-3.75819e-16
1.34207e-17
6.42199e-18
-4.65777e-15
-5.36544e-20
9.58025e-22
1.96613e-20
-1.17699e-19
-9.68354e-24
3.58328e-25
2.67681e-24
-1.12835e-23
-4.57112e-26
1.05071e-26
1.73361e-26
-6.60837e-26
-1.58442e-27
1.61803e-28
2.9287e-28
-1.14924e-27
-1.30366e-29
8.12325e-31
1.38962e-30
-7.74547e-30
-4.13468e-32
1.69978e-33
2.71147e-33
-1.86439e-32
-5.36732e-35
1.46606e-36
1.81974e-36
-1.70388e-35
-2.50282e-38
7.67152e-40
3.45656e-40
-4.62707e-39
-7.21456e-42
5.03128e-43
-2.83452e-45
9.03089e-44
-1.62762e-45
2.56854e-46
-1.1772e-47
4.35746e-46
-2.73139e-49
8.28752e-50
-3.95748e-51
1.37568e-49
-3.9702e-53
1.37494e-53
-7.43102e-55
2.6021e-53
-4.97066e-57
1.33785e-57
-9.80118e-59
3.70083e-57
-2.78233e-61
7.11839e-62
-6.35659e-63
2.13053e-61
-3.99008e-66
7.108e-67
-1.38606e-67
3.42801e-66
-2.94151e-71
2.94333e-72
-5.15164e-73
2.70571e-71
-9.00506e-77
4.17297e-78
-2.28922e-78
8.83427e-77
3.10382e-06
-4.34498e-06
1.24116e-06
-3.81337e-06
6.84611e-06
2.55932e-05
-2.86259e-05
-9.4814e-06
1.18161e-05
2.20627e-05
-2.43973e-05
-1.41085e-05
1.64985e-05
1.82847e-05
-2.06746e-05
-1.89986e-05
2.15663e-05
1.78845e-05
-2.04521e-05
-2.41577e-05
2.67485e-05
1.83345e-05
-2.09253e-05
-2.93331e-05
3.19164e-05
1.86237e-05
-2.1207e-05
-3.45062e-05
3.71091e-05
1.87006e-05
-2.13035e-05
-3.97289e-05
4.23674e-05
1.86174e-05
-2.12559e-05
-4.50237e-05
4.76957e-05
1.83437e-05
-2.10158e-05
-5.038e-05
5.30712e-05
1.77923e-05
-2.04835e-05
-5.57635e-05
5.84477e-05
1.68522e-05
-1.95364e-05
-6.11122e-05
6.37421e-05
1.53628e-05
-1.79927e-05
-6.63188e-05
6.8821e-05
1.31426e-05
-1.56448e-05
-7.1222e-05
7.34916e-05
9.98447e-06
-1.22541e-05
-7.55966e-05
7.75017e-05
5.68004e-06
-7.5852e-06
-7.91726e-05
8.05785e-05
4.86426e-08
-1.45458e-06
-8.16891e-05
8.24902e-05
-7.04264e-06
6.24153e-06
-8.29618e-05
8.30897e-05
-1.57053e-05
1.55775e-05
-8.28539e-05
8.22182e-05
-2.60841e-05
2.67198e-05
-8.11154e-05
7.94357e-05
-3.85779e-05
4.02576e-05
-7.70017e-05
7.36502e-05
-5.48233e-05
5.81749e-05
-6.91439e-05
6.57411e-05
-8.16341e-05
8.5037e-05
5.80773e-06
-7.4899e-06
1.68217e-06
-4.31764e-06
7.06091e-06
3.15207e-05
-3.42639e-05
-9.34841e-06
1.14797e-05
2.66199e-05
-2.87511e-05
-1.37286e-05
1.616e-05
2.30831e-05
-2.55145e-05
-1.87163e-05
2.13228e-05
2.30463e-05
-2.56528e-05
-2.39344e-05
2.65385e-05
2.3528e-05
-2.6132e-05
-2.91412e-05
3.1755e-05
2.38076e-05
-2.64213e-05
-3.43909e-05
3.70567e-05
2.39387e-05
-2.66046e-05
-3.97575e-05
4.24966e-05
2.39453e-05
-2.66845e-05
-4.52762e-05
4.80981e-05
2.37629e-05
-2.65848e-05
-5.09635e-05
5.38723e-05
2.32824e-05
-2.61912e-05
-5.68247e-05
5.9818e-05
2.23708e-05
-2.53641e-05
-6.28478e-05
6.59071e-05
2.08259e-05
-2.38852e-05
-6.89838e-05
7.20597e-05
1.84126e-05
-2.14884e-05
-7.51051e-05
7.80812e-05
1.48513e-05
-1.78274e-05
-8.09409e-05
8.36343e-05
9.86312e-06
-1.25566e-05
-8.6112e-05
8.83321e-05
3.26223e-06
-5.48229e-06
-9.02756e-05
9.19141e-05
-5.01805e-06
3.37955e-06
-9.32536e-05
9.43009e-05
-1.49828e-05
1.39355e-05
-9.50846e-05
9.56471e-05
-2.67451e-05
2.61826e-05
-9.60854e-05
9.65593e-05
-4.07828e-05
4.03089e-05
-9.7365e-05
9.88799e-05
-5.83321e-05
5.68172e-05
-0.00010188
0.000106523
-8.05298e-05
7.58869e-05
9.38673e-06
-1.14895e-05
2.10272e-06
-4.76804e-06
7.19335e-06
3.68497e-05
-3.9275e-05
-9.18831e-06
1.12054e-05
3.08144e-05
-3.28315e-05
-1.34632e-05
1.59285e-05
2.79663e-05
-3.04316e-05
-1.84933e-05
2.1081e-05
2.82568e-05
-3.08445e-05
-2.36648e-05
2.62489e-05
2.87294e-05
-3.13135e-05
-2.88481e-05
3.14765e-05
2.90447e-05
-3.1673e-05
-3.41442e-05
3.68586e-05
2.92973e-05
-3.20117e-05
-3.96261e-05
4.24534e-05
2.94693e-05
-3.22966e-05
-4.53483e-05
4.83199e-05
2.94791e-05
-3.24507e-05
-5.13795e-05
5.45388e-05
2.92141e-05
-3.23734e-05
-5.78111e-05
6.12065e-05
2.85373e-05
-3.19326e-05
-6.47263e-05
6.83526e-05
2.72178e-05
-3.0844e-05
-7.20459e-05
7.57594e-05
2.49253e-05
-2.86388e-05
-7.94602e-05
8.31214e-05
2.12148e-05
-2.4876e-05
-8.67201e-05
9.02318e-05
1.56939e-05
-1.92057e-05
-9.36163e-05
9.68167e-05
8.15086e-06
-1.13512e-05
-9.97456e-05
0.000102347
-1.32205e-06
-1.27955e-06
-0.000104611
0.000106587
-1.24632e-05
1.04877e-05
-0.000108262
0.000109674
-2.51535e-05
2.37416e-05
-0.000110989
0.000112418
-3.92443e-05
3.78152e-05
-0.000114165
0.000116459
-5.4723e-05
5.24287e-05
-0.000119629
0.000123773
-7.14069e-05
6.72629e-05
1.37862e-05
-1.62645e-05
2.47827e-06
-5.11823e-06
7.22808e-06
4.15405e-05
-4.36503e-05
-9.01215e-06
1.09894e-05
3.48211e-05
-3.67984e-05
-1.3267e-05
1.57251e-05
3.28994e-05
-3.53574e-05
-1.82426e-05
2.07668e-05
3.34039e-05
-3.59281e-05
-2.32952e-05
2.58439e-05
3.38794e-05
-3.64282e-05
-2.84302e-05
3.10671e-05
3.4303e-05
-3.694e-05
-3.37657e-05
3.65362e-05
3.47476e-05
-3.75182e-05
-3.939e-05
4.23392e-05
3.51756e-05
-3.81248e-05
-4.5394e-05
4.85591e-05
3.55232e-05
-3.86883e-05
-5.18282e-05
5.51749e-05
3.56929e-05
-3.90396e-05
-5.85523e-05
6.18966e-05
3.5506e-05
-3.88503e-05
-6.51304e-05
6.82344e-05
3.45117e-05
-3.76157e-05
-7.13264e-05
7.47043e-05
3.2214e-05
-3.55918e-05
-7.86857e-05
8.3332e-05
2.8602e-05
-3.32482e-05
-8.84407e-05
9.354e-05
2.30826e-05
-2.81813e-05
-9.82707e-05
0.00010247
1.50181e-05
-1.9217e-05
-0.000106048
0.000109235
4.84061e-06
-7.7722e-06
-0.000113183
0.00011711
-7.44164e-06
3.51453e-06
-0.000120206
0.000122904
-2.17763e-05
1.90781e-05
-0.000125328
0.000127695
-3.62364e-05
3.38696e-05
-0.00013012
0.000132532
-5.02906e-05
4.78787e-05
-0.000134934
0.000137465
-6.38132e-05
6.12822e-05
1.89135e-05
-2.17082e-05
2.79471e-06
-5.3576e-06
7.18325e-06
4.5612e-05
-4.74377e-05
-8.84297e-06
1.08314e-05
3.87753e-05
-4.07637e-05
-1.31202e-05
1.55393e-05
3.77974e-05
-4.02165e-05
-1.79893e-05
2.0451e-05
3.84188e-05
-4.08805e-05
-2.29389e-05
2.54693e-05
3.89691e-05
-4.14995e-05
-2.80511e-05
3.06856e-05
3.95947e-05
-4.22292e-05
-3.33659e-05
3.60742e-05
4.03229e-05
-4.30311e-05
-3.87759e-05
4.1419e-05
4.1084e-05
-4.3727e-05
-4.39352e-05
4.62409e-05
4.17164e-05
-4.40221e-05
-4.8281e-05
5.00785e-05
4.18856e-05
-4.3683e-05
-5.18417e-05
5.40802e-05
4.13023e-05
-4.35402e-05
-5.75063e-05
6.33017e-05
4.03848e-05
-4.61728e-05
-7.15427e-05
7.82645e-05
4.09675e-05
-4.42756e-05
-6.92834e-05
4.69835e-05
4.09485e-05
-7.4489e-06
-2.41684e-05
9.48702e-06
2.08919e-05
-2.85018e-07
-5.00235e-06
1.1677e-06
3.92679e-06
-1.12489e-07
-2.60094e-07
5.96368e-08
2.00207e-07
-9.60121e-09
-1.3984e-08
3.86401e-07
-4.09475e-07
1.38287e-08
-2.11204e-06
6.66127e-06
-5.13233e-06
1.42402e-07
-1.64105e-05
3.46224e-05
-2.08712e-05
3.37875e-07
-6.34556e-05
9.80401e-05
-4.45588e-05
2.96105e-06
-0.000123954
0.000140824
-5.83663e-05
4.14952e-05
2.45853e-05
-2.7487e-05
2.90169e-06
-5.32225e-06
6.91918e-06
4.91461e-05
-5.0743e-05
-8.54269e-06
1.0546e-05
4.27718e-05
-4.47751e-05
-1.27694e-05
1.50281e-05
4.25982e-05
-4.48569e-05
-1.72532e-05
1.94377e-05
4.32781e-05
-4.54627e-05
-2.15771e-05
2.36412e-05
4.39272e-05
-4.59912e-05
-2.55887e-05
2.73789e-05
4.46339e-05
-4.64241e-05
-2.89771e-05
3.03508e-05
4.52522e-05
-4.66257e-05
-3.15155e-05
3.26451e-05
4.55055e-05
-4.66341e-05
-3.41134e-05
3.64518e-05
4.53303e-05
-4.76621e-05
-4.06934e-05
4.79666e-05
4.57338e-05
-5.29742e-05
-5.46689e-05
4.9009e-05
5.00151e-05
-2.55244e-05
-2.77903e-05
1.59449e-05
3.78384e-05
-1.47823e-06
-3.35207e-06
5.3404e-07
2.84904e-06
-2.89146e-08
-5.89219e-08
1.28882e-08
5.31515e-08
-2.59098e-09
-1.76307e-08
7.62039e-08
3.7011e-08
-8.25942e-08
-2.77669e-07
3.38429e-07
1.87097e-07
-1.67565e-07
-3.62711e-07
4.85228e-09
2.78455e-08
-2.45559e-08
-1.93628e-09
1.70868e-09
-1.68383e-10
6.39913e-11
-2.16793e-09
7.70521e-09
-5.74874e-09
1.79011e-10
-1.91072e-08
4.18547e-08
-2.39487e-08
9.77129e-10
-9.17051e-08
2.15057e-07
-1.30688e-07
6.26521e-09
-5.26893e-07
1.11421e-06
-6.54981e-07
6.47665e-08
3.04848e-05
-3.40325e-05
3.54826e-06
-4.53532e-06
5.50768e-06
5.21473e-05
-5.31185e-05
-6.83731e-06
8.44062e-06
4.66659e-05
-4.82683e-05
-1.00507e-05
1.15557e-05
4.67975e-05
-4.83012e-05
-1.29684e-05
1.43316e-05
4.71968e-05
-4.8558e-05
-1.57076e-05
1.71509e-05
4.74514e-05
-4.88869e-05
-1.88417e-05
2.10833e-05
4.76071e-05
-4.98237e-05
-2.448e-05
2.94456e-05
4.80655e-05
-5.08444e-05
-3.42504e-05
3.62629e-05
4.99388e-05
-3.12044e-05
-3.0556e-05
1.74124e-05
4.79647e-05
-1.94765e-06
-1.33427e-05
2.50574e-06
1.08903e-05
-4.16749e-08
-3.9293e-07
5.52114e-08
3.38539e-07
-6.93139e-10
-7.34938e-09
8.74445e-10
6.48511e-09
-8.39421e-12
-9.03492e-11
1.3005e-11
7.76668e-11
-1.51105e-13
-1.18182e-09
1.59916e-07
1.22273e-08
-6.26581e-08
-2.55987e-07
2.88502e-07
1.89934e-07
-2.04363e-07
-2.25508e-07
4.40073e-08
1.06746e-07
-2.46395e-08
-2.36375e-09
1.11327e-10
2.30297e-09
-6.72825e-11
-2.70809e-12
1.85385e-12
8.77332e-13
-5.28198e-15
-1.84347e-12
7.18405e-12
-5.45854e-12
1.22824e-13
-2.36339e-11
6.10998e-11
-3.93469e-11
1.32393e-12
-1.51249e-10
4.07982e-10
-2.71699e-10
1.10199e-11
-1.27032e-09
3.88473e-09
-2.75765e-09
1.23122e-10
3.98115e-05
-1.68753e-05
6.76234e-06
-7.53524e-06
6.8168e-06
5.31863e-05
-3.43637e-05
-7.57447e-06
9.47913e-06
4.96698e-05
-3.37037e-05
-1.15739e-05
1.36091e-05
4.99022e-05
-2.52481e-05
-1.53911e-05
1.64531e-05
5.07706e-05
-1.60086e-05
-1.57155e-05
1.30076e-05
4.50214e-05
-1.71788e-07
-9.73343e-06
5.70941e-06
2.9385e-05
-1.38451e-09
-4.73987e-06
6.14538e-07
4.12536e-06
-1.31632e-11
-7.73891e-08
9.34261e-09
6.80469e-08
-1.19585e-13
-1.0947e-09
1.2596e-10
9.67396e-10
-6.11151e-15
-1.33474e-11
8.14817e-13
1.27371e-11
-1.78726e-13
-2.88747e-13
3.13797e-13
8.38552e-13
-4.23103e-13
-3.66099e-13
3.80116e-13
4.72238e-13
-2.04895e-13
-5.43643e-13
7.16756e-13
5.61397e-14
-3.65914e-14
-1.73005e-07
2.37548e-07
1.21452e-07
-1.67931e-07
-2.177e-07
2.33626e-08
1.42187e-07
-4.72336e-08
-1.13209e-09
4.92528e-11
1.12928e-09
-6.51935e-11
-1.74545e-12
5.52402e-14
1.74321e-12
-9.40849e-14
-1.38136e-14
1.62241e-14
2.0487e-15
-2.33669e-15
-1.89245e-14
2.40454e-14
-8.11619e-15
5.03314e-15
-4.07836e-14
8.60852e-14
-4.84645e-14
7.99436e-15
-2.01626e-13
5.86523e-13
-4.22641e-13
2.85455e-14
-2.0125e-12
6.74652e-12
-4.98017e-12
1.82379e-13
-8.03597e-24
1.70139e-23
-9.63017e-26
-1.35218e-08
3.43777e-10
1.3178e-08
2.31393e-21
-1.09199e-11
4.15566e-13
1.05044e-11
1.60251e-19
-1.85898e-14
9.52099e-16
1.76329e-14
4.83312e-18
-5.28148e-17
-4.96667e-19
-5.64434e-19
6.13458e-17
4.9861e-17
-1.36779e-16
-1.40319e-16
4.15573e-16
3.05925e-16
-5.82467e-16
-5.74757e-16
1.33177e-15
9.87486e-16
-1.39112e-15
-1.43874e-15
2.34581e-15
-2.00312e-16
2.39235e-15
9.18021e-15
-1.16628e-14
-4.58997e-15
5.23705e-15
6.77396e-15
-7.32973e-15
-1.51208e-14
5.41329e-13
2.07247e-13
-7.41372e-13
-2.93181e-12
6.95228e-12
8.41424e-13
-5.09221e-12
-7.21584e-12
2.0737e-12
-1.64412e-13
5.28486e-12
-1.65174e-12
2.07742e-12
4.86726e-14
-3.4793e-13
-1.27591e-08
4.89364e-08
1.07595e-07
-1.50266e-09
-4.8113e-09
8.34452e-11
3.48141e-09
-4.04978e-10
-3.36402e-12
1.36255e-13
4.39991e-12
-1.11478e-12
-2.05768e-14
1.75183e-14
1.23809e-14
-7.4478e-15
-1.93441e-14
2.25789e-14
2.73827e-15
-2.99612e-15
-2.65376e-14
3.08491e-14
-3.27805e-15
9.77957e-16
-3.47633e-14
3.77812e-14
-8.95273e-15
5.39974e-15
-3.97037e-14
4.03107e-14
-1.09653e-14
8.0557e-15
-3.77259e-14
2.7466e-14
1.37084e-15
5.40772e-15
-1.42227e-23
1.287e-23
-1.86732e-26
2.27831e-23
-8.72538e-22
-5.21834e-21
8.18421e-21
1.25674e-20
-1.17686e-19
-3.50242e-19
5.73206e-19
8.24117e-19
-4.39587e-18
-9.84174e-18
1.52735e-17
1.78321e-17
-5.98839e-17
-1.1231e-16
1.62526e-16
1.69472e-16
-3.9749e-16
-6.36726e-16
8.0096e-16
7.5552e-16
-1.16017e-15
-1.62737e-15
1.49706e-15
1.60319e-15
-1.52394e-15
-1.9423e-15
4.25246e-16
-4.10714e-14
2.55273e-13
4.02611e-14
-2.99905e-13
-1.4925e-13
2.82678e-13
2.48731e-14
-1.78603e-13
-1.70613e-12
1.05195e-10
8.86688e-12
-1.12126e-10
-5.32887e-10
1.41714e-09
8.91319e-11
-1.0085e-09
-1.79096e-09
5.37952e-10
-9.91486e-11
1.32909e-10
-2.51328e-10
2.15104e-09
1.96245e-11
1.86362e-11
-4.02552e-09
2.96929e-09
5.67332e-10
-1.71892e-10
-1.94778e-09
3.28393e-11
8.73256e-11
-6.68825e-10
2.67064e-15
5.79947e-15
1.05722e-12
-1.51694e-12
-1.31865e-14
1.27224e-14
6.03614e-15
-7.59239e-15
-1.28949e-14
1.26886e-14
2.6203e-15
-1.73655e-15
-1.19177e-14
1.03858e-14
3.90513e-16
-4.94569e-16
-8.64278e-15
7.25579e-15
-1.21926e-15
4.71427e-17
-6.20317e-15
6.15722e-15
-2.18841e-15
1.61876e-16
-6.62013e-15
8.1049e-15
-3.64901e-15
3.9228e-16
-1.58657e-23
1.95038e-23
-8.47548e-25
5.6708e-23
-1.39977e-21
-1.13313e-20
1.43525e-20
1.96655e-20
-1.87172e-19
-8.22425e-19
1.06637e-18
1.29123e-18
-6.65242e-18
-2.0987e-17
2.60816e-17
2.59607e-17
-8.14832e-17
-2.08619e-16
2.40678e-16
2.04893e-16
-3.97885e-16
-8.71419e-16
8.14909e-16
5.53629e-16
-4.99886e-16
-9.61575e-16
1.50945e-16
5.31545e-16
1.23192e-14
2.44584e-15
-1.52674e-14
-4.09498e-12
2.16938e-11
2.61661e-12
-2.37767e-11
-1.02784e-11
2.32326e-11
1.0822e-12
-1.49657e-11
-2.00759e-10
2.56009e-08
1.42897e-09
-1.34922e-08
-4.8131e-08
5.59159e-08
4.17031e-08
-4.95108e-08
-5.70516e-08
5.6668e-08
2.17535e-08
-2.12696e-08
-3.06398e-09
2.87899e-09
-1.43259e-10
6.28735e-10
-1.18006e-08
1.29507e-08
-3.40592e-10
1.87038e-09
-4.87981e-09
3.05707e-11
5.23982e-10
-1.28397e-10
-1.47987e-12
9.82505e-14
1.2569e-12
-4.59928e-13
-1.11718e-14
3.23919e-15
6.48804e-15
-2.43735e-15
-2.73487e-15
2.07871e-15
8.43942e-16
-3.24367e-16
-1.3598e-15
7.76457e-16
2.27186e-16
-6.21742e-17
-3.99964e-16
2.00571e-16
2.50794e-17
-6.10849e-18
-1.34439e-16
1.36618e-16
-4.5297e-18
-1.41155e-18
-1.55226e-16
2.30634e-16
-2.23361e-17
1.4604e-18
-2.29776e-23
2.54354e-23
-1.3107e-24
7.02471e-23
-1.59696e-21
-1.68672e-20
1.84768e-20
2.21479e-20
-2.04985e-19
-1.26188e-18
1.37256e-18
1.35127e-18
-6.59929e-18
-2.95276e-17
3.05815e-17
2.42275e-17
-6.87336e-17
-2.50255e-16
2.34607e-16
1.4627e-16
-2.00034e-16
-6.31329e-16
3.57211e-16
7.55024e-17
2.53408e-16
7.03524e-16
-1.37019e-15
-4.54582e-16
1.42566e-12
1.3711e-13
-1.56167e-12
-3.32751e-10
1.07466e-09
1.79339e-10
-1.17366e-09
-2.54798e-10
5.04006e-10
1.44338e-10
-1.08958e-09
-1.22034e-09
3.20919e-09
2.86607e-09
-1.4466e-10
-2.16067e-08
2.5244e-08
5.14404e-08
-5.4707e-08
-2.42099e-08
2.37451e-08
2.02222e-08
-1.96652e-08
-2.83899e-09
1.30244e-11
-3.04155e-09
4.70098e-09
-5.28964e-09
5.18029e-09