/*--------------------------------*- C++ -*----------------------------------*\
| =========                 |                                                 |
| \\      /  F ield         | OpenFOAM: The Open Source CFD Toolbox           |
|  \\    /   O peration     | Version:  v1912                                 |
|   \\  /    A nd           | Website:  www.openfoam.com                      |
|    \\/     M anipulation  |                                                 |
\*---------------------------------------------------------------------------*/
FoamFile
{
    version     2.0;
    format      ascii;
    class       volScalarField;
    location    "0.25";
    object      p;
}
// * * * * * * * * * * * * * * * * * * * * * * * * * * * * * * * * * * * * * //

dimensions      [1 -1 -2 0 0 0 0];


internalField   nonuniform List<scalar> 
9072
(
1559.94
1592.11
1589.48
1581.7
1572.68
1563.18
1552.98
1542.06
1530.77
1519.81
1510.19
1503.24
1500.7
1504.77
1518.13
1544.29
1587.32
1651.22
1735.86
1810.8
1834.89
1777.46
1791.77
1499.67
1532.44
1529.78
1522.07
1513.11
1503.61
1493.36
1482.36
1470.97
1459.89
1450.12
1443
1440.24
1444.03
1457
1482.18
1522.84
1581.57
1656.43
1732.25
1779.34
1702.71
1629.39
1438.31
1471.7
1468.97
1461.4
1452.59
1443.09
1432.72
1421.53
1409.91
1398.55
1388.44
1380.9
1377.64
1380.8
1392.94
1416.9
1455.3
1509.4
1575.14
1638.07
1680.66
1633.41
1584.27
1376.05
1409.9
1407.09
1399.73
1391.13
1381.62
1371.06
1359.58
1347.59
1335.79
1325.14
1316.94
1312.88
1315.06
1325.95
1348.17
1383.88
1433.45
1492.58
1549.41
1587.57
1592.46
1651.85
1312.92
1347.1
1344.21
1337.14
1328.76
1319.2
1308.37
1296.49
1284
1271.59
1260.2
1251.09
1245.92
1246.76
1255.98
1276.01
1308.69
1353.91
1407.63
1460.62
1502.9
1542.74
1662.31
1248.98
1283.39
1280.41
1273.66
1265.5
1255.83
1244.65
1232.26
1219.14
1205.95
1193.6
1183.32
1176.73
1175.84
1182.97
1200.41
1229.78
1270.82
1319.94
1370.05
1415.71
1468.69
1584.09
1184.31
1218.86
1215.8
1209.37
1201.37
1191.51
1179.9
1166.91
1153.02
1138.87
1125.32
1113.59
1105.24
1102.23
1106.83
1121.27
1147.06
1183.96
1228.85
1275.95
1321.2
1372.38
1451.1
1119
1153.61
1150.47
1144.33
1136.4
1126.28
1114.15
1100.44
1085.63
1070.33
1055.36
1041.87
1031.38
1025.81
1027.39
1038.36
1060.26
1092.98
1133.66
1176.99
1217.51
1252.56
1265.62
9.00195
9.02592
9.01373
8.9974
8.981
8.96728
8.95711
8.95015
8.94548
8.94218
8.9396
8.93728
8.93502
8.93279
8.93065
8.92867
8.927
8.92576
8.92507
8.9444
8.96778
8.95527
8.93844
8.92169
8.90784
8.89774
8.89091
8.88638
8.8832
8.88067
8.87839
8.87615
8.87391
8.87174
8.86975
8.86805
8.8668
8.8661
8.88786
8.91065
8.89736
8.87931
8.86173
8.84763
8.8377
8.8312
8.82701
8.82408
8.8217
8.81948
8.81724
8.81494
8.81267
8.81057
8.8088
8.80749
8.80675
8.83246
8.85474
8.84011
8.81999
8.801
8.78656
8.77695
8.77103
8.76737
8.76484
8.7627
8.76055
8.75828
8.75587
8.75343
8.75116
8.74925
8.74783
8.74702
8.77804
8.80007
8.78357
8.76029
8.73935
8.7245
8.71546
8.7104
8.7075
8.7055
8.70366
8.70162
8.69926
8.69668
8.69402
8.69151
8.68938
8.6878
8.6869
8.72426
8.74679
8.72786
8.70005
8.67646
8.66128
8.65316
8.6493
8.64743
8.64612
8.64464
8.64269
8.64022
8.63738
8.63442
8.6316
8.62918
8.62738
8.62635
8.67151
8.69558
8.6736
8.63887
8.61192
8.59668
8.58999
8.58777
8.5872
8.58672
8.58566
8.58378
8.58116
8.578
8.57464
8.57142
8.56862
8.56653
8.56534
8.59753
8.64465
8.62175
8.57603
8.54509
8.53041
8.52591
8.52585
8.52686
8.52736
8.52676
8.52494
8.5221
8.51854
8.51467
8.51092
8.50766
8.50521
8.50382
997.101
1069.03
1065.78
1059.99
1052.03
1041.43
1028.52
1013.76
997.585
980.551
963.425
947.272
933.524
924.035
921.022
926.794
943.128
970.114
1005.19
1042.52
1072.4
1073
943.424
854.725
926.825
923.291
917.571
909.061
897.324
882.763
865.776
846.697
825.944
804.129
782.115
761.122
742.861
729.589
724.002
728.811
744.999
770.318
797.576
810.431
774.119
620.759
710.946
782.801
778.778
772.621
763.036
749.736
733.085
713.301
690.531
665.002
637.082
607.28
576.318
545.456
516.955
494.416
482.408
486.483
504.768
527.983
542.557
521.807
432.966
566.149
637.423
632.695
625.602
614.512
599.283
580.12
556.97
529.695
498.206
462.495
422.488
378.379
332.42
286.584
240.192
210.508
205.047
201.086
225.926
264.354
275.247
246.346
420.796
491.041
485.455
477.071
464.17
446.669
424.634
397.615
365.042
326.462
282.384
233.983
178.6
106.911
28.4309
2.4676
-1.96219
-3.48969
-3.3206
-4.47761
-0.618
13.1858
53.1429
275.021
344.067
337.515
327.762
312.82
292.588
267.686
236.852
200.679
156.159
103.472
47.9864
1.65055
-3.79022
-3.34957
-3.12773
-3.79251
-5.06456
-5.46636
-5.56906
-5.51229
-5.49669
-5.74195
129.099
196.713
189.674
178.931
162.973
139.079
114.206
80.6376
45.7991
8.60948
-4.71019
-4.90169
-4.59461
-4.37885
-4.03939
-4.30943
-5.23791
-5.73626
-5.9758
-5.92929
-5.87472
-5.87946
-6.01076
25.2958
54.4339
45.9779
36.9774
29.2994
8.20855
-0.897997
-4.10813
-4.61076
-4.89588
-5.01865
-5.07363
-4.95537
-4.89141
-5.04078
-5.32446
-5.52477
-5.72997
-5.87732
-5.9439
-5.98633
-6.05834
-6.18656
-4.4498
-4.33001
-4.3804
-4.45152
-4.37855
-4.46026
-4.6536
-4.73375
-4.88738
-5.11259
-5.26885
-5.35957
-5.35758
-5.37834
-5.54887
-5.57125
-5.70169
-5.85106
-5.96297
-6.04424
-6.12378
-6.22888
-6.37203
-4.63959
-4.52095
-4.54586
-4.58284
-4.61109
-4.67569
-4.79435
-4.94462
-5.15217
-5.42292
-5.67291
-5.87157
-5.95486
-5.85865
-5.7226
-5.7702
-5.89749
-6.0171
-6.11843
-6.20952
-6.30825
-6.42949
-6.579
-4.82661
-4.72622
-4.74053
-4.76967
-4.81254
-4.88181
-4.99319
-5.16331
-5.44663
-5.8064
-6.10102
-6.48332
-6.67866
-6.36523
-6.02309
-6.02651
-6.10581
-6.2024
-6.30053
-6.40186
-6.51576
-6.64932
-6.80607
-5.00936
-4.9224
-4.93821
-4.96785
-5.01391
-5.08411
-5.19346
-5.37794
-5.76986
-6.13277
-6.43749
-6.91239
-7.16098
-6.67812
-6.27557
-6.23794
-6.2982
-6.3895
-6.49412
-6.6101
-6.74067
-6.88937
-7.05904
-5.19146
-5.11228
-5.13167
-5.16373
-5.2116
-5.28093
-5.38197
-5.55284
-6.01685
-6.28251
-6.53706
-6.84433
-6.96453
-6.61268
-6.38583
-6.39593
-6.4724
-6.57645
-6.69731
-6.83329
-6.98532
-7.1558
-7.34627
-5.36917
-5.2952
-5.31739
-5.35219
-5.40208
-5.4707
-5.56408
-5.69992
-6.08251
-6.31932
-6.48938
-6.62854
-6.62769
-6.51476
-6.47955
-6.54358
-6.64673
-6.77248
-6.91581
-7.07676
-7.25657
-7.45692
-7.67928
-5.53843
-5.46947
-5.49329
-5.53012
-5.58189
-5.65087
-5.74068
-5.85799
-6.06225
-6.32367
-6.4622
-6.53685
-6.56088
-6.57198
-6.61894
-6.71286
-6.839
-6.98748
-7.15637
-7.34709
-7.56149
-7.80183
-8.07293
-5.69621
-5.6326
-5.65715
-5.69519
-5.7482
-5.8178
-5.90606
-6.0158
-6.15511
-6.33517
-6.4907
-6.56948
-6.63297
-6.69712
-6.78453
-6.90383
-7.05184
-7.22454
-7.42227
-7.64812
-7.90545
-8.19949
-8.54004
-5.84114
-5.78313
-5.8077
-5.84623
-5.89961
-5.96877
-6.05488
-6.15946
-6.28414
-6.4268
-6.55356
-6.65504
-6.74795
-6.84607
-6.96352
-7.10761
-7.27986
-7.48044
-7.71179
-7.97932
-8.29004
-8.6538
-9.08819
-5.97211
-5.92018
-5.94455
-5.9829
-6.0357
-6.10346
-6.18668
-6.28559
-6.39918
-6.52276
-6.6451
-6.76027
-6.87598
-7.00102
-7.14497
-7.31464
-7.51446
-7.74775
-8.01871
-8.33551
-8.71039
-9.15969
-9.71235
-6.08899
-6.0434
-6.06739
-6.10511
-6.15687
-6.22292
-6.3034
-6.39798
-6.50532
-6.62247
-6.74504
-6.87123
-7.00477
-7.15218
-7.32039
-7.5161
-7.74621
-8.0166
-8.33308
-8.70654
-9.15374
-9.69693
-10.3724
-6.19185
-6.15261
-6.17611
-6.21306
-6.26364
-6.32801
-6.40619
-6.49781
-6.60205
-6.71756
-6.84285
-6.978
-7.12615
-7.29248
-7.48276
-7.70413
-7.96554
-8.27532
-8.64138
-9.07718
-9.60211
-10.2414
-11.0238
-6.28114
-6.24812
-6.27106
-6.30715
-6.35653
-6.41934
-6.49558
-6.58515
-6.68788
-6.80351
-6.93196
-7.07436
-7.23413
-7.41608
-7.62576
-7.8709
-8.16223
-8.51076
-8.9276
-9.42922
-10.0386
-10.7795
-11.6658
-6.35739
-6.33046
-6.3528
-6.38796
-6.43607
-6.49726
-6.57166
-6.65946
-6.76103
-6.87687
-7.00775
-7.15541
-7.32374
-7.51771
-7.74311
-8.00834
-8.32569
-8.70915
-9.17429
-9.74331
-10.4451
-11.3089
-12.3466
-6.4208
-6.40001
-6.42162
-6.45566
-6.50222
-6.56151
-6.6338
-6.71958
-6.81962
-6.93495
-7.06686
-7.21761
-7.39136
-7.59278
-7.82916
-8.10908
-8.44579
-8.8566
-9.363
-9.99446
-10.7911
-11.8031
-13.0816
-6.47129
-6.45656
-6.47727
-6.5099
-6.5546
-6.61166
-6.68152
-6.76486
-6.86271
-6.97643
-7.1076
-7.25864
-7.43367
-7.6384
-7.8797
-8.16678
-8.5139
-8.93982
-9.47343
-10.1513
-11.0287
-12.1874
-13.7383
-6.50962
-6.50033
-6.52002
-6.5511
-6.59378
-6.64842
-6.71553
-6.79588
-6.89064
-7.00131
-7.12962
-7.27791
-7.4502
-7.65241
-7.89165
-8.17693
-8.52219
-8.9488
-9.48734
-10.1816
-11.1009
-12.3586
-14.1251
-6.53741
-6.53271
-6.55136
-6.58082
-6.62133
-6.67326
-6.73713
-6.81372
-6.90419
-7.01009
-7.13314
-7.2755
-7.44078
-7.6347
-7.86434
-8.13803
-8.46856
-8.87653
-9.39241
-10.0617
-10.9587
-12.2148
-14.0505
-6.55599
-6.5553
-6.57283
-6.60049
-6.63852
-6.68728
-6.74724
-6.81912
-6.90399
-7.00334
-7.11879
-7.25219
-7.4065
-7.58681
-7.79969
-8.05239
-8.35548
-8.72645
-9.19155
-9.79041
-10.5886
-11.7022
-13.3414
-6.56587
-6.56895
-6.58517
-6.61078
-6.64596
-6.69103
-6.7464
-6.81268
-6.89078
-6.98199
-7.08778
-7.20965
-7.34974
-7.51204
-7.70217
-7.92599
-8.19117
-8.51042
-8.90264
-9.39557
-10.0335
-10.8886
-12.0847
-6.56739
-6.57398
-6.58877
-6.61209
-6.64411
-6.68507
-6.73531
-6.79528
-6.86567
-6.94751
-7.04203
-7.15039
-7.2739
-7.41517
-7.57837
-7.76785
-7.98823
-8.24698
-8.55475
-8.92553
-9.37961
-9.94352
-10.6504
-6.56117
-6.57089
-6.58415
-6.60504
-6.63368
-6.67024
-6.71495
-6.76812
-6.8302
-6.90187
-6.98403
-7.07754
-7.18305
-7.30173
-7.436
-7.58858
-7.76152
-7.95751
-8.18013
-8.4322
-8.7153
-9.0264
-9.34916
-6.54805
-6.56044
-6.57212
-6.59049
-6.61562
-6.6476
-6.68656
-6.73266
-6.78611
-6.84724
-6.91655
-6.99457
-7.08149
-7.17736
-7.28284
-7.39886
-7.52561
-7.66234
-7.80745
-7.95705
-8.10254
-8.22752
-8.30144
-6.52895
-6.54353
-6.5536
-6.56942
-6.59099
-6.61834
-6.65149
-6.69045
-6.73523
-6.78585
-6.84239
-6.90497
-6.9735
-7.04737
-7.12581
-7.20812
-7.29298
-7.37773
-7.45796
-7.52659
-7.57198
-7.5757
-7.50968
-6.50477
-6.52109
-6.52957
-6.54286
-6.56092
-6.58369
-6.61111
-6.64306
-6.67939
-6.71986
-6.76419
-6.81208
-6.86314
-6.91647
-6.97058
-7.02354
-7.07287
-7.11496
-7.14445
-7.15373
-7.13186
-7.0638
-6.92952
-6.47639
-6.49404
-6.50098
-6.51181
-6.52646
-6.54482
-6.56672
-6.59197
-6.62026
-6.65119
-6.68422
-6.71871
-6.7539
-6.78875
-6.82158
-6.84998
-6.87084
-6.88014
-6.87261
-6.84148
-6.77807
-6.67182
-6.5106
-6.44466
-6.46324
-6.4687
-6.4772
-6.48861
-6.50279
-6.51951
-6.53848
-6.5593
-6.58148
-6.60433
-6.62699
-6.6484
-6.66734
-6.68218
-6.69061
-6.68955
-6.6751
-6.64256
-6.58643
-6.50043
-6.37792
-6.21248
-6.41041
-6.42955
-6.43361
-6.43992
-6.44833
-6.45863
-6.47056
-6.48377
-6.49783
-6.51216
-6.52603
-6.5385
-6.54839
-6.55432
-6.55469
-6.5475
-6.53014
-6.49934
-6.45126
-6.38172
-6.28644
-6.16161
-6.00447
-6.37432
-6.39373
-6.39652
-6.40082
-6.40646
-6.41323
-6.42082
-6.42887
-6.4369
-6.44434
-6.45047
-6.45436
-6.45486
-6.45061
-6.44004
-6.4214
-6.39266
-6.35138
-6.29479
-6.21998
-6.12429
-6.00571
-5.86367
-6.33697
-6.35637
-6.35801
-6.36051
-6.36367
-6.36727
-6.37099
-6.37448
-6.37727
-6.37882
-6.37842
-6.37526
-6.3683
-6.35634
-6.33798
-6.31172
-6.27597
-6.22905
-6.1692
-6.09472
-6.00424
-5.89699
-5.77354
-6.29938
-6.31838
-6.319
-6.31992
-6.32088
-6.32166
-6.32198
-6.32149
-6.31978
-6.31635
-6.31057
-6.30174
-6.289
-6.27138
-6.24777
-6.21699
-6.17786
-6.12926
-6.07024
-6.00006
-5.91839
-5.82533
-5.72204
-6.25998
-6.27952
-6.27942
-6.279
-6.27805
-6.27638
-6.27376
-6.26988
-6.26439
-6.25686
-6.24679
-6.23359
-6.21661
-6.19511
-6.16832
-6.13544
-6.0957
-6.04848
-5.99341
-5.93045
-5.86
-5.78286
-5.7004
-6.22413
-6.24094
-6.24037
-6.23879
-6.23613
-6.23228
-6.22707
-6.22025
-6.21155
-6.20063
-6.18711
-6.17056
-6.15052
-6.12653
-6.09812
-6.06488
-6.0265
-5.98283
-5.93398
-5.88042
-5.82302
-5.76305
-5.70203
-6.17963
-6.20747
-6.20674
-6.20415
-6.19998
-6.19421
-6.18674
-6.17739
-6.16598
-6.15226
-6.13598
-6.11685
-6.09463
-6.06907
-6.04003
-6.00745
-5.97142
-5.93225
-5.89053
-5.84717
-5.80342
-5.76097
-5.72164
-78.856
9.10191
9.52955
8.86937
314.103
74.3622
-31.114
11.9213
283.88
193.581
122.474
56.3674
188.108
150.639
117.608
88.4627
69.2095
64.9865
57.7086
49.6442
-5.27458
-2.25465
6.08774
9.59057
-6.1752
-6.26683
-6.35698
-6.47116
-6.33773
-6.43238
-6.52957
-6.63155
-6.52399
-6.61351
-6.70551
-6.79923
-6.73019
-6.81806
-6.90748
-6.99899
-6.96034
-7.04931
-7.13906
-7.23006
-7.22285
-7.31743
-7.41245
-7.50669
-7.52839
-7.63459
-7.74091
-7.8436
-7.89305
-8.01827
-8.143
-8.26343
-8.33823
-8.49409
-8.65112
-8.80935
-8.88451
-9.09273
-9.30981
-9.53655
-9.54637
-9.83741
-10.1552
-10.5063
-10.3221
-10.7335
-11.218
-11.8177
-11.1311
-11.6643
-12.3542
-13.3183
-11.865
-12.4131
-13.0486
-13.6913
-12.5509
-13.072
-13.6149
-14.0795
-13.3575
-13.9092
-14.3868
-14.502
-14.4529
-15.3369
-16.2594
-16.8525
-15.5906
-16.9197
-18.3904
-19.5385
-16.3883
-18.0776
-20.0236
-21.6072
-16.587
-18.5769
-21.1634
-23.5895
-15.6796
-17.5816
-20.3927
-24.1817
-13.6352
-14.7566
-16.1818
-18.0284
-11.4032
-11.8427
-12.2771
-12.6626
-9.58533
-9.66362
-9.67357
-9.58827
-8.26762
-8.19218
-8.05782
-7.85359
-7.35659
-7.22755
-7.05836
-6.84675
-6.7359
-6.59767
-6.43323
-6.24357
-6.31386
-6.18475
-6.03869
-5.8766
-6.0283
-5.91355
-5.78806
-5.65277
-5.83948
-5.73996
-5.63395
-5.52229
-5.72087
-5.63673
-5.54865
-5.45743
-5.65385
-5.5847
-5.51318
-5.43996
-5.62527
-5.57045
-5.5144
-5.45753
-5.62607
-5.58498
-5.54358
-5.50199
-5.6499
-5.62214
-5.59488
-5.56803
-5.69184
-5.67755
-5.66462
-5.65262
8.68144
8.58804
8.55946
8.49149
8.4552
8.44284
8.44256
8.44607
8.44948
8.45139
8.45142
8.44966
8.44643
8.44221
8.43752
8.43291
8.42892
8.42592
8.42418
7.70315
8.39329
8.44677
8.32748
8.28766
8.28855
8.30122
8.31328
8.32161
8.32609
8.32712
8.32517
8.32085
8.31497
8.30837
8.30185
8.29618
8.29191
8.2894
19.9905
8.07028
8.41788
8.1056
8.08626
8.12427
8.15952
8.18221
8.19553
8.20242
8.20413
8.20144
8.19529
8.18687
8.17749
8.16832
8.16037
8.15437
8.15084
55.3364
7.51619
0.888401
7.7143
7.84381
7.96148
8.02615
8.0561
8.0721
8.08074
8.08271
8.07858
8.06959
8.0575
8.04421
8.03143
8.02044
8.01219
8.00734
39.0854
21.188
5.67116
-3.88898
7.67577
7.82734
7.91633
7.93557
7.95004
7.96054
7.96284
7.95644
7.94329
7.92607
7.90753
7.88996
7.875
7.86389
7.85744
11.4243
7.43797
5.26984
4.60938
0.744833
7.86622
7.83281
7.80641
7.82368
7.84063
7.84432
7.83468
7.81552
7.79129
7.76584
7.74217
7.72227
7.70763
7.69926
-6.50328
4.14054
1.05796
-0.484916
11.8934
6.00856
7.63301
7.61797
7.68598
7.72064
7.72719
7.71251
7.68479
7.65114
7.61685
7.5857
7.55994
7.54116
7.53052
-6.76454
-6.97772
-6.54445
2.22076
-5.31126
4.24998
7.16421
7.46431
7.53686
7.60296
7.61147
7.58814
7.54836
7.50256
7.45749
7.41754
7.38514
7.36176
7.34856
-6.92619
-7.1395
-7.34197
-7.48237
0.412214
-8.24803
-2.15576
7.34049
7.37456
7.49056
7.49583
7.45775
7.40156
7.34098
7.2836
7.23397
7.19443
7.16624
7.1504
-7.12361
-7.33117
-7.52383
-7.71301
-7.77287
-22.1385
-8.13001
6.6731
7.30614
7.38214
7.37436
7.31395
7.23753
7.16033
7.09005
7.03067
6.9841
6.95126
6.93292
-7.35286
-7.55767
-7.73225
-7.88732
-8.02521
-6.5896
-18.4826
7.28122
7.22793
7.25539
7.23044
7.14478
7.04739
6.9536
6.87108
6.80295
6.75029
6.71351
6.69308
-7.62935
-7.8313
-7.99419
-8.11378
-8.28291
-9.06231
-24.1855
1.04041
6.97103
7.07419
7.04241
6.9362
6.82124
6.71368
6.62121
6.54643
6.48948
6.45004
6.42824
-7.97413
-8.18709
-8.34799
-8.43422
-8.5623
-8.88613
6.19901
-3.7628
7.08798
6.84208
6.79964
6.67637
6.54976
6.43417
6.33603
6.25777
6.19902
6.15867
6.13646
-8.42029
-8.67215
-8.84538
-8.90643
-8.91996
-8.83853
19.6135
-1.03285
6.64724
6.52949
6.48211
6.35382
6.22534
6.11026
6.01277
5.93525
5.87759
5.83836
5.81687
-9.0199
-9.34787
-9.5487
-9.57073
-9.47965
-9.18165
4.71836
3.81266
6.2345
6.16174
6.08006
5.96124
5.84439
5.74012
5.65091
5.57906
5.52559
5.48945
5.46979
-9.84304
-10.3237
-10.5434
-10.4418
-10.1705
-9.53585
1.69413
4.11829
5.673
5.65114
5.58388
5.49973
5.41017
5.32643
5.25263
5.19141
5.14507
5.11375
5.09689
-11.007
-11.859
-11.989
-11.5724
-10.9492
-10.7978
7.48202
4.45601
4.76201
4.9768
5.01069
4.98386
4.9327
4.87649
4.82309
4.7763
4.73954
4.71439
4.70099
-12.8126
-14.3543
-13.9433
-12.9227
-11.6489
-4.61843
1.65611
3.67767
4.0721
4.3062
4.40883
4.43711
4.42679
4.40044
4.36941
4.33912
4.31353
4.2954
4.28587
-15.1884
-16.9088
-15.4721
-14.1456
-10.9772
2.71436
2.74682
3.01954
3.40531
3.66454
3.80884
3.88062
3.90668
3.90874
3.89956
3.88604
3.87213
3.86138
3.85581
-14.2358
-15.5514
-16.1172
-15.8769
-3.23302
1.08105
1.91439
2.41021
2.78476
3.05101
3.22476
3.32804
3.38401
3.41059
3.42113
3.42321
3.4205
3.41699
3.41527
-14.479
-14.9029
-15.9465
-9.02067
-0.200515
0.726104
1.32198
1.81509
2.19238
2.47006
2.6623
2.78816
2.86695
2.91344
2.94066
2.95613
2.96344
2.96668
2.96848
-14.2962
-12.1289
-12.4244
-5.46752
-0.777894
0.0945076
0.748999
1.25508
1.63779
1.92247
2.12547
2.26655
2.36148
2.4229
2.46324
2.48941
2.50518
2.51439
2.51923
-16.9685
-10.8456
-7.33238
-4.5108
-1.69706
-0.496179
0.23198
0.747074
1.12835
1.41112
1.61774
1.76675
1.87097
1.94261
1.99245
2.02653
2.04906
2.06325
2.07062
-19.955
-9.00416
-4.72237
-3.31972
-1.78978
-0.810242
-0.160548
0.314064
0.670236
0.939031
1.14039
1.28938
1.3972
1.47488
1.53071
1.57011
1.59765
1.6157
1.62514
-22.3868
-63.3788
-0.926705
-2.68591
-1.47974
-0.894212
-0.428501
-0.0459828
0.260846
0.502773
0.690724
0.833493
0.940615
1.02063
1.07927
1.12177
1.15263
1.17337
1.18428
-25.2518
-60.6431
-4.24081
-0.75451
-1.00672
-0.900224
-0.641311
-0.364301
-0.115362
0.0943743
0.263657
0.39662
0.500191
0.579353
0.638356
0.682418
0.715036
0.737412
0.749455
-34.8389
-59.2347
-10.3155
-1.68796
-1.1847
-1.07722
-0.894276
-0.681994
-0.477958
-0.29768
-0.147023
-0.0243559
0.073658
0.149678
0.207938
0.252342
0.285272
0.308568
0.321998
-22.1416
-24.2647
-8.21555
-2.87625
-1.80495
-1.45181
-1.22387
-1.02448
-0.84291
-0.682508
-0.546173
-0.433009
-0.341673
-0.269233
-0.212269
-0.168886
-0.1366
-0.112934
-0.0987547
-13.185
-10.9174
-6.2207
-3.50439
-2.39705
-1.89539
-1.60359
-1.39004
-1.2135
-1.0636
-0.937279
-0.832682
-0.747374
-0.678134
-0.623435
-0.581972
-0.550545
-0.527074
-0.513091
-9.3285
-7.69527
-5.43462
-3.78374
-2.84349
-2.31621
-1.99115
-1.76308
-1.58585
-1.4415
-1.32273
-1.2249
-1.14422
-1.07846
-1.02685
-0.987294
-0.956669
-0.934208
-0.921425
-7.48253
-6.36366
-5.03345
-3.93222
-3.17788
-2.68865
-2.36304
-2.13126
-1.95485
-1.8154
-1.70241
-1.60961
-1.53331
-1.4716
-1.42306
-1.38504
-1.35558
-1.33503
-1.32401
-6.50823
-5.70707
-4.82189
-4.04128
-3.44459
-3.01656
-2.71113
-2.4868
-2.31636
-2.18256
-2.07481
-1.98714
-1.91569
-1.85804
-1.81215
-1.77587
-1.74841
-1.73022
-1.72083
-5.95981
-5.36094
-4.72585
-4.14684
-3.67353
-3.30929
-3.03491
-2.82719
-2.6671
-2.5408
-2.43967
-2.35803
-2.29159
-2.23773
-2.1947
-2.161
-2.13618
-2.12014
-2.11187
-5.64225
-5.18011
-4.70264
-4.25982
-3.88232
-3.57792
-3.33894
-3.1526
-3.00626
-2.89012
-2.79734
-2.72228
-2.66085
-2.61121
-2.5719
-2.54148
-2.5193
-2.50493
-2.49739
-5.46115
-5.0977
-4.72909
-4.38426
-4.08269
-3.83131
-3.6277
-3.46493
-3.335
-3.23126
-3.14788
-3.0797
-3.02408
-2.9797
-2.94476
-2.91764
-2.89779
-2.88485
-2.87796
-5.3669
-5.0791
-4.79107
-4.52057
-4.28011
-4.07512
-3.90536
-3.76696
-3.65512
-3.56492
-3.49137
-3.43109
-3.38258
-3.34408
-3.31341
-3.2894
-3.27185
-3.26042
-3.25428
-5.33219
-5.10466
-4.87952
-4.66801
-4.47819
-4.31407
-4.17596
-4.06178
-3.96837
-3.89188
-3.82908
-3.77812
-3.73732
-3.70446
-3.67786
-3.6571
-3.64212
-3.63238
-3.62707
-5.34049
-5.16291
-4.9892
-4.82642
-4.67968
-4.55166
-4.44274
-4.35167
-4.2762
-4.21392
-4.16298
-4.12177
-4.08831
-4.06079
-4.03852
-4.02147
-4.0093
-4.00132
-3.99686
-5.38098
-5.24656
-5.11666
-4.9955
-4.88617
-4.7903
-4.70812
-4.63881
-4.58101
-4.53329
-4.49423
-4.46222
-4.43568
-4.41379
-4.39643
-4.38338
-4.37402
-4.36776
-4.36416
-5.44654
-5.35086
-5.25964
-5.17513
-5.09901
-5.03212
-4.97457
-4.92583
-4.88507
-4.85127
-4.82329
-4.79996
-4.78054
-4.76483
-4.75266
-4.7435
-4.7368
-4.73221
-4.72949
-5.53271
-5.47304
-5.41706
-5.36564
-5.31953
-5.27906
-5.24419
-5.21457
-5.18965
-5.16876
-5.15122
-5.13656
-5.12459
-5.11516
-5.1079
-5.10232
-5.09813
-5.09522
-5.09338
-5.63725
-5.61201
-5.58878
-5.56769
-5.54892
-5.5325
-5.51836
-5.5063
-5.49605
-5.48736
-5.48002
-5.47398
-5.46919
-5.46548
-5.46259
-5.4603
-5.45855
-5.45731
-5.45635
1591.1
1591.73
1585.91
1577.25
1568
1558.18
1547.6
1536.42
1525.19
1514.76
1506.28
1501.3
1501.76
1510.1
1529.32
1563.49
1616.4
1691.66
1778.68
1824.55
1831.48
1726.76
1887.92
1531.42
1532.04
1526.23
1517.66
1508.44
1498.59
1487.94
1476.68
1465.34
1454.77
1446.13
1440.95
1441.16
1449.19
1467.86
1500.36
1549.89
1617.49
1695.99
1758.92
1786.67
1599.14
1782.28
1470.74
1471.25
1465.46
1457.08
1447.94
1438.02
1427.21
1415.74
1404.14
1393.27
1384.25
1378.61
1378.27
1385.58
1403.27
1434.15
1480.45
1541.44
1608.21
1662.98
1682.14
1559.06
1734.79
1408.94
1409.39
1403.67
1395.54
1386.5
1376.47
1365.41
1353.61
1341.61
1330.25
1320.64
1314.27
1313.04
1319.25
1335.48
1364.24
1407.04
1462.37
1522.32
1571.73
1596.13
1592.57
1777.49
1346.15
1346.51
1340.9
1333.09
1324.14
1313.93
1302.54
1290.28
1277.73
1265.69
1255.26
1247.89
1245.45
1250.16
1264.5
1290.71
1329.86
1380.18
1434.94
1483.47
1520.98
1583.55
1771.08
1282.48
1282.71
1277.25
1269.76
1260.86
1250.41
1238.58
1225.76
1212.51
1199.6
1188.11
1179.44
1175.43
1178.25
1190.27
1213.57
1248.97
1294.76
1345.37
1393.4
1439.24
1514.46
1671.7
1218.05
1218.08
1212.78
1205.59
1196.68
1185.91
1173.55
1160.04
1145.93
1131.95
1119.14
1108.88
1102.93
1103.43
1112.69
1132.7
1164.24
1205.73
1252.51
1298.76
1344.94
1407.97
1497.74
1152.95
1152.71
1147.59
1140.63
1131.61
1120.44
1107.46
1093.14
1078
1062.74
1048.34
1036.14
1027.85
1025.56
1031.58
1047.9
1075.38
1112.61
1155.38
1197.84
1235.92
1264.5
1214.69
9.02949
9.0206
9.00581
8.989
8.97371
8.96175
8.95329
8.94759
8.9437
8.94084
8.93843
8.93615
8.9339
8.9317
8.92963
8.92779
8.92632
8.92534
8.92493
8.97133
8.96235
8.9471
8.92983
8.91431
8.90233
8.89398
8.88842
8.88467
8.88188
8.87952
8.87727
8.87503
8.87281
8.87072
8.86885
8.86736
8.86638
8.86597
8.91423
8.90497
8.88857
8.87021
8.85415
8.84217
8.83409
8.82889
8.82544
8.82286
8.82059
8.81837
8.81609
8.8138
8.81159
8.80964
8.80808
8.80704
8.80661
8.85833
8.84861
8.83026
8.81005
8.79314
8.78121
8.77362
8.769
8.76602
8.76375
8.76164
8.75943
8.75709
8.75464
8.75226
8.75015
8.74847
8.74734
8.74686
8.80363
8.79342
8.77208
8.74917
8.73112
8.71936
8.71256
8.70877
8.70645
8.70459
8.70268
8.70048
8.69799
8.69534
8.69273
8.69038
8.68851
8.68726
8.68672
8.75055
8.73956
8.71403
8.68727
8.66783
8.65651
8.65086
8.64823
8.64676
8.64543
8.64373
8.64151
8.63883
8.6359
8.63298
8.63033
8.62819
8.62676
8.62615
8.6999
8.68807
8.65604
8.6239
8.60297
8.59254
8.58853
8.5874
8.587
8.58629
8.58482
8.58255
8.57962
8.57632
8.573
8.56994
8.56747
8.56581
8.56511
8.65177
8.64135
8.59782
8.55829
8.53605
8.5273
8.52559
8.52635
8.52722
8.52721
8.526
8.52363
8.52039
8.51662
8.51275
8.5092
8.50632
8.50438
8.50354
1068.71
1067.94
1063.1
1056.33
1047.05
1035.24
1021.34
1005.82
989.134
971.941
955.147
939.991
928.115
921.572
922.676
933.576
955.361
986.931
1024.06
1059.22
1078.74
1034.46
552.008
926.978
925.442
920.694
913.727
903.576
890.368
874.552
856.475
836.497
815.122
793.081
771.397
751.521
735.441
725.653
724.977
735.518
756.814
784.45
807.321
801.39
716.48
495.701
783.578
781.052
776.042
768.31
756.827
741.812
723.576
702.278
678.092
651.312
622.379
591.885
560.757
530.726
504.658
486.791
482
494.264
516.423
537.705
538.662
488.594
356.147
638.942
635.246
629.577
620.592
607.396
590.191
569.052
543.855
514.478
480.883
443.035
400.846
355.313
309.416
263.197
221.068
206.467
204.601
208.686
246.533
274.521
266.075
216.581
493.358
488.4
481.776
471.209
455.981
436.234
411.791
382.052
346.505
305.079
258.836
207.235
141.963
65.3957
10.4082
-1.29583
-2.89009
-3.45537
-3.78023
-3.53492
4.35275
30.9025
67.2689
347.298
340.838
333.246
320.969
303.3
280.758
253.141
219.427
179.037
132.545
76.1648
17.1201
-3.40811
-3.55891
-3.18739
-3.32121
-4.46312
-5.3494
-5.53215
-5.55813
-5.46644
-5.65247
-5.59399
199.287
193.351
184.874
171.775
151.204
126.908
100.624
61.4611
24.3813
-0.710268
-5.03271
-4.71707
-4.48202
-4.26028
-3.98095
-4.81266
-5.51298
-5.89215
-5.95893
-5.89941
-5.86474
-5.92959
-6.10467
61.2556
50.2616
41.7331
32.2421
14.6264
3.34255
-3.59612
-4.39852
-4.73437
-4.96295
-5.07001
-5.02404
-4.89747
-4.93541
-5.13668
-5.44283
-5.62032
-5.81958
-5.9158
-5.96431
-6.01619
-6.11518
-6.26935
-4.15616
-4.34025
-4.41999
-4.45823
-4.36778
-4.55986
-4.70415
-4.79049
-5.00727
-5.19527
-5.32695
-5.36635
-5.35372
-5.44757
-5.56108
-5.62725
-5.77866
-5.9123
-6.00845
-6.08205
-6.17201
-6.29559
-6.4567
-4.51035
-4.52986
-4.56507
-4.59747
-4.63569
-4.72975
-4.86529
-5.03823
-5.28473
-5.55402
-5.77972
-5.9361
-5.92471
-5.77913
-5.72096
-5.83348
-5.95933
-6.06994
-6.1643
-6.25679
-6.36549
-6.50069
-6.66364
-4.72394
-4.73172
-4.7535
-4.78892
-4.84284
-4.93136
-5.06886
-5.2845
-5.63328
-5.95615
-6.27037
-6.65211
-6.55603
-6.15993
-5.99905
-6.06298
-6.15329
-6.25154
-6.35023
-6.45671
-6.57976
-6.72475
-6.89275
-4.91804
-4.92909
-4.95116
-4.98852
-5.04521
-5.13271
-5.27047
-5.53157
-5.99318
-6.26522
-6.651
-7.13293
-6.97189
-6.42315
-6.23165
-6.26304
-6.3414
-6.44053
-6.5505
-6.67334
-6.81253
-6.97156
-7.1512
-5.10632
-5.12081
-5.14589
-5.18544
-5.24306
-5.32682
-5.45356
-5.71301
-6.21523
-6.39831
-6.68854
-6.96862
-6.81005
-6.46106
-6.37593
-6.42973
-6.52192
-6.635
-6.76339
-6.90718
-7.06812
-7.24849
-7.4487
-5.28902
-5.30504
-5.33307
-5.37506
-5.43374
-5.51378
-5.62635
-5.84688
-6.23423
-6.40641
-6.5679
-6.65197
-6.57007
-6.48247
-6.50382
-6.59187
-6.70724
-6.842
-6.99401
-7.16423
-7.35404
-7.56522
-7.79923
-5.46329
-5.48002
-5.50993
-5.55402
-5.61403
-5.693
-5.79424
-5.94228
-6.19178
-6.41218
-6.50307
-6.55512
-6.56341
-6.58964
-6.66057
-6.77286
-6.91068
-7.06932
-7.24887
-7.45123
-7.67816
-7.93321
-8.22109
-5.62623
-5.64332
-5.67438
-5.71974
-5.78081
-5.85952
-5.95756
-6.08227
-6.2364
-6.43469
-6.53126
-6.60299
-6.66324
-6.73703
-6.84021
-6.97461
-7.13518
-7.32011
-7.53148
-7.77259
-8.04739
-8.36309
-8.73082
-5.77648
-5.79373
-5.82517
-5.87102
-5.93214
-6.00962
-6.10472
-6.21924
-6.35427
-6.49458
-6.6061
-6.7018
-6.79536
-6.90173
-7.03206
-7.19024
-7.37652
-7.592
-7.84061
-8.12878
-8.46437
-8.86062
-9.33844
-5.91332
-5.93063
-5.96194
-6.00747
-6.06767
-6.14312
-6.23419
-6.34071
-6.46027
-6.58484
-6.7036
-6.81763
-6.93668
-7.07014
-7.22628
-7.41055
-7.62673
-7.87812
-8.17068
-8.51486
-8.92429
-9.42043
-10.0403
-6.03652
-6.05367
-6.08449
-6.12923
-6.18809
-6.26136
-6.34897
-6.45019
-6.56293
-6.68331
-6.80758
-6.93669
-7.07631
-7.23327
-7.41438
-7.62644
-7.87608
-8.16853
-8.51178
-8.9197
-9.41151
-10.0149
-10.7784
-6.14586
-6.16268
-6.1929
-6.23664
-6.29409
-6.36539
-6.45035
-6.54842
-6.6585
-6.77905
-6.90906
-7.05015
-7.20669
-7.38423
-7.58901
-7.82928
-8.11396
-8.45062
-8.84951
-9.32706
-9.90563
-10.6127
-11.4819
-6.24152
-6.25795
-6.28745
-6.33017
-6.38625
-6.45578
-6.53871
-6.63489
-6.7441
-6.86612
-7.00124
-7.15178
-7.32202
-7.51705
-7.74327
-8.0101
-8.32868
-8.70981
-9.16652
-9.71882
-10.3914
-11.204
-12.1618
-6.32406
-6.34003
-6.36877
-6.41039
-6.46503
-6.5328
-6.61387
-6.7085
-6.81713
-6.94036
-7.07932
-7.2367
-7.41716
-7.62605
-7.87007
-8.15963
-8.50826
-8.93034
-9.44411
-10.0756
-10.855
-11.807
-12.9196
-6.39382
-6.40926
-6.43708
-6.47736
-6.53026
-6.59601
-6.67496
-6.76776
-6.8753
-6.99873
-7.13967
-7.30126
-7.48784
-7.70623
-7.96291
-8.26933
-8.64076
-9.09618
-9.66097
-10.3691
-11.2671
-12.4056
-13.8331
-6.4506
-6.46542
-6.49208
-6.53072
-6.58156
-6.64495
-6.72144
-6.81189
-6.9175
-7.03972
-7.18042
-7.34283
-7.5319
-7.75401
-8.01678
-8.33171
-8.7158
-9.19123
-9.79143
-10.5606
-11.5666
-12.9058
-14.712
-6.49468
-6.50875
-6.53412
-6.57097
-6.61958
-6.68037
-6.75398
-6.84137
-6.94389
-7.06314
-7.20106
-7.36072
-7.54714
-7.76692
-8.02781
-8.34093
-8.72365
-9.20175
-9.81145
-10.6073
-11.678
-13.1655
-15.2944
-6.52736
-6.54069
-6.56472
-6.59967
-6.64584
-6.70366
-6.77377
-6.85713
-6.9551
-7.06936
-7.20173
-7.35496
-7.53373
-7.7446
-7.99502
-8.29511
-8.66123
-9.11858
-9.70416
-10.4754
-11.5304
-13.0399
-15.3428
-6.55028
-6.5628
-6.58538
-6.61819
-6.66154
-6.71582
-6.78163
-6.85985
-6.95176
-7.05895
-7.18311
-7.32647
-7.49301
-7.68875
-7.92052
-8.19672
-8.53109
-8.94515
-9.47099
-10.1589
-11.096
-12.4335
-14.5285
-6.56431
-6.5759
-6.59679
-6.62715
-6.66724
-6.7174
-6.77813
-6.85018
-6.93465
-7.03297
-7.1466
-7.27722
-7.42778
-7.60327
-7.80948
-8.05275
-8.34301
-8.69596
-9.13422
-9.69273
-10.428
-11.4309
-12.8999
-6.56975
-6.58031
-6.59935
-6.627
-6.66345
-6.70901
-6.76404
-6.82912
-6.90508
-6.99311
-7.09441
-7.21013
-7.34208
-7.49375
-7.66957
-7.8738
-8.11219
-8.39399
-8.73118
-9.14058
-9.64609
-10.2761
-11.0717
-6.56709
-6.57657
-6.59363
-6.61838
-6.65096
-6.69156
-6.74046
-6.79801
-6.86478
-6.94158
-7.02933
-7.12875
-7.24061
-7.36674
-7.50986
-7.67237
-7.85642
-8.06526
-8.30237
-8.56988
-8.86787
-9.18848
-9.49806
-6.55709
-6.56544
-6.58046
-6.6022
-6.63074
-6.6662
-6.70871
-6.75845
-6.81569
-6.88083
-6.95445
-7.03692
-7.12828
-7.22884
-7.3395
-7.46092
-7.59281
-7.73401
-7.88207
-8.03113
-8.169
-8.27399
-8.29917
-6.54063
-6.54784
-6.56079
-6.57949
-6.60394
-6.63419
-6.67024
-6.71211
-6.75981
-6.81337
-6.87292
-6.93852
-7.00982
-7.08605
-7.16654
-7.25036
-7.33559
-7.41878
-7.49431
-7.55316
-7.58048
-7.55392
-7.43614
-6.51865
-6.52473
-6.53562
-6.5513
-6.57172
-6.59683
-6.62653
-6.66069
-6.69913
-6.74156
-6.78771
-6.83726
-6.88961
-6.94354
-6.99734
-7.04886
-7.09511
-7.13169
-7.15221
-7.14754
-7.10469
-7.00657
-6.82883
-6.49204
-6.49702
-6.50591
-6.51867
-6.53519
-6.55534
-6.57894
-6.60575
-6.63542
-6.66748
-6.70133
-6.73627
-6.77145
-6.80555
-6.8365
-6.86158
-6.87724
-6.87887
-6.86049
-6.81444
-6.73101
-6.59902
-6.40474
-6.46168
-6.46559
-6.47258
-6.48255
-6.49537
-6.51085
-6.52873
-6.54869
-6.57026
-6.59287
-6.61575
-6.63792
-6.65827
-6.6754
-6.68737
-6.69149
-6.68428
-6.66142
-6.61782
-6.54758
-6.44413
-6.30103
-6.11148
-6.42838
-6.4313
-6.4365
-6.44387
-6.45325
-6.46441
-6.47703
-6.49073
-6.505
-6.5192
-6.53251
-6.54385
-6.55195
-6.55532
-6.55219