/*--------------------------------*- C++ -*----------------------------------*\
| =========                 |                                                 |
| \\      /  F ield         | OpenFOAM: The Open Source CFD Toolbox           |
|  \\    /   O peration     | Version:  v1912                                 |
|   \\  /    A nd           | Website:  www.openfoam.com                      |
|    \\/     M anipulation  |                                                 |
\*---------------------------------------------------------------------------*/
FoamFile
{
    version     2.0;
    format      ascii;
    class       volScalarField;
    location    "0.25";
    object      p_rgh;
}
// * * * * * * * * * * * * * * * * * * * * * * * * * * * * * * * * * * * * * //

dimensions      [1 -1 -2 0 0 0 0];


internalField   nonuniform List<scalar> 
9072
(
1604.09
1606.83
1604.19
1596.42
1587.4
1577.89
1567.7
1556.77
1545.48
1534.53
1524.9
1517.96
1515.42
1519.49
1532.85
1559
1602.03
1665.94
1750.57
1825.51
1846.34
1791.44
1806.47
1602.68
1606.01
1603.35
1595.64
1586.69
1577.19
1566.94
1555.93
1544.54
1533.46
1523.7
1516.57
1513.81
1517.6
1530.58
1555.75
1596.41
1655.15
1730
1805.82
1852.91
1762.31
1697.76
1600.17
1604.13
1601.4
1593.83
1585.02
1575.52
1565.16
1553.96
1542.34
1530.98
1520.87
1513.33
1510.07
1513.23
1525.38
1549.33
1587.73
1641.83
1707.57
1770.5
1813.1
1742.89
1700.16
1596.77
1601.19
1598.38
1591.03
1582.42
1572.91
1562.35
1550.87
1538.88
1527.08
1516.43
1508.23
1504.17
1506.35
1517.24
1539.46
1575.17
1624.74
1683.87
1740.7
1778.86
1783.75
1842.34
1592.5
1597.25
1594.36
1587.29
1578.91
1569.35
1558.52
1546.64
1534.15
1521.74
1510.35
1501.24
1496.07
1496.91
1506.13
1526.16
1558.84
1604.06
1657.78
1710.77
1753.05
1792.89
1912.46
1587.42
1592.4
1589.42
1582.67
1574.51
1564.83
1553.66
1541.27
1528.15
1514.96
1502.61
1492.33
1485.74
1484.85
1491.98
1509.42
1538.79
1579.83
1628.95
1679.06
1724.72
1777.7
1893.1
1581.61
1586.73
1583.67
1577.24
1569.24
1559.38
1547.77
1534.78
1520.89
1506.73
1493.19
1481.46
1473.11
1470.1
1474.69
1489.13
1514.93
1551.83
1596.72
1643.82
1689.07
1740.24
1818.97
1575.16
1580.33
1577.19
1571.05
1563.13
1553
1540.87
1527.17
1512.36
1497.05
1482.08
1468.59
1458.11
1452.54
1454.12
1465.09
1486.98
1519.7
1560.39
1603.71
1644.24
1679.28
1692.35
9.04609
9.04064
9.02844
9.01212
8.99572
8.98199
8.97183
8.96487
8.96019
8.9569
8.95431
8.952
8.94974
8.94751
8.94536
8.94339
8.94171
8.94047
8.93978
9.0474
9.04136
9.02884
9.01201
8.99526
8.98141
8.97132
8.96449
8.95995
8.95677
8.95425
8.95197
8.94972
8.94748
8.94532
8.94332
8.94163
8.94037
8.93968
9.04972
9.04308
9.0298
9.01175
8.99416
8.98006
8.97013
8.96364
8.95944
8.95651
8.95414
8.95191
8.94967
8.94737
8.9451
8.943
8.94123
8.93992
8.93918
9.05318
9.04603
9.0314
9.01128
8.9923
8.97785
8.96824
8.96232
8.95866
8.95613
8.95399
8.95184
8.94957
8.94716
8.94472
8.94245
8.94054
8.93912
8.93831
9.05762
9.05022
9.03372
9.01044
8.9895
8.97465
8.96561
8.96055
8.95765
8.95565
8.95381
8.95177
8.94941
8.94683
8.94417
8.94166
8.93953
8.93795
8.93705
9.0627
9.0558
9.03687
9.00906
8.98547
8.97029
8.96217
8.95831
8.95644
8.95513
8.95365
8.95169
8.94922
8.94639
8.94343
8.94061
8.93819
8.93639
8.93536
9.06881
9.06345
9.04146
9.00673
8.97979
8.96455
8.95785
8.95564
8.95506
8.95459
8.95353
8.95165
8.94902
8.94586
8.94251
8.93928
8.93648
8.93439
8.93321
9.05369
9.07137
9.04848
9.00276
8.97181
8.95714
8.95264
8.95257
8.95358
8.95408
8.95348
8.95167
8.94883
8.94527
8.9414
8.93764
8.93438
8.93194
8.93055
1561.87
1571.2
1567.95
1562.16
1554.19
1543.6
1530.69
1515.93
1499.75
1482.72
1465.59
1449.44
1435.69
1426.2
1423.19
1428.96
1445.3
1472.28
1507.36
1544.69
1574.57
1575.16
1445.59
1544.69
1554.19
1550.65
1544.93
1536.42
1524.69
1510.13
1493.14
1474.06
1453.31
1431.49
1409.48
1388.49
1370.22
1356.95
1351.37
1356.17
1372.36
1397.68
1424.94
1437.79
1401.48
1248.12
1526.1
1535.36
1531.34
1525.18
1515.59
1502.29
1485.64
1465.86
1443.09
1417.56
1389.64
1359.84
1328.88
1298.01
1269.51
1246.97
1234.97
1239.04
1257.33
1280.54
1295.11
1274.36
1185.52
1506.5
1515.17
1510.45
1503.35
1492.26
1477.03
1457.87
1434.72
1407.45
1375.96
1340.25
1300.24
1256.13
1210.17
1164.33
1117.91
1088.22
1081.05
1078.84
1103.68
1142.11
1153
1124.1
1486.34
1493.99
1488.4
1480.02
1467.12
1449.62
1427.58
1400.56
1367.99
1329.41
1285.33
1236.92
1181.46
1087.6
666.22
166.747
-0.626407
-2.42151
-1.91639
17.7393
144.122
511.023
1056.08
1465.76
1472.21
1465.66
1455.91
1440.97
1420.73
1395.83
1365
1328.82
1284.25
1231.14
971.269
228.869
-2.64464
-2.19914
-1.78589
-0.0640203
-2.80069
-4.33586
-4.44061
-4.37692
-4.33417
-4.31013
1445.03
1450.05
1443.01
1432.26
1416.29
1392.36
1367.31
1329.08
1115.61
500.536
-3.43257
-3.64836
-3.34128
-3.1255
-1.75568
0.339224
-2.55726
-4.48277
-4.72246
-4.67595
-4.62136
-4.62602
-4.75644
1105.65
1325.75
1311.86
1176.96
953.779
553.877
187.216
-2.7296
-3.23223
-3.51736
-3.64012
-3.6951
-3.57684
-3.51288
0.0327624
-2.17254
-4.14602
-4.35145
-4.49879
-4.56537
-4.6078
-4.67981
-4.80803
-2.88349
-2.82628
-2.87668
-2.9478
-2.87482
-2.95654
-3.14988
-3.23003
-3.38366
-3.60887
-3.76513
-3.85585
-3.85385
-3.87461
-3.30924
-4.06043
-4.19796
-4.34734
-4.45925
-4.54051
-4.62006
-4.72515
-4.86831
-2.94807
-2.89204
-2.91694
-2.95392
-2.98218
-3.04677
-3.16544
-3.31571
-3.52325
-3.794
-4.04399
-4.24169
-4.32251
-4.22718
-4.04175
-4.1191
-4.26857
-4.38819
-4.48952
-4.5806
-4.67934
-4.80057
-4.95009
-3.0099
-2.97211
-2.98641
-3.01556
-3.05842
-3.1277
-3.23908
-3.4092
-3.69248
-4.05227
-4.27823
-3.72262
-3.91665
-4.60071
-3.81712
-4.23924
-4.35169
-4.44828
-4.54642
-4.64775
-4.76165
-4.89521
-5.05196
-3.06745
-3.04309
-3.0589
-3.08855
-3.13461
-3.2048
-3.31416
-3.49864
-3.88773
-4.23608
-4.55067
-3.95707
-4.20186
-4.31082
-3.98956
-4.35862
-4.41889
-4.51019
-4.61481
-4.73079
-4.86136
-5.01007
-5.17973
-3.12436
-3.10778
-3.12717
-3.15923
-3.2071
-3.27642
-3.37746
-3.54834
-2.14597
-4.26677
-4.53078
-4.8395
-4.56537
-4.57547
-4.3786
-4.39143
-4.4679
-4.57194
-4.69281
-4.82879
-4.98082
-5.1513
-5.34177
-3.17688
-3.1655
-3.1877
-3.22249
-3.27238
-3.341
-3.43439
-3.56049
-1.96907
-4.16896
-4.35086
-4.49369
-4.49767
-4.3838
-4.34985
-4.41388
-4.51703
-4.64278
-4.78611
-4.94706
-5.12688
-5.32722
-5.54959
-3.22094
-3.21458
-3.2384
-3.27523
-3.327
-3.39598
-3.48579
-3.60309
-1.82104
-2.00669
-4.20727
-4.27524
-4.30599
-4.31709
-4.36404
-4.45796
-4.58411
-4.73259
-4.90147
-5.09219
-5.30659
-5.54694
-5.81804
-3.25353
-3.25251
-3.27706
-3.3151
-3.36812
-3.43772
-3.52597
-3.63571
-3.77503
-2.57497
-4.11058
-4.1887
-4.25288
-4.31704
-4.40444
-4.52374
-4.67175
-4.84446
-5.04218
-5.26803
-5.52537
-5.81941
-6.15995
-3.27326
-3.27784
-3.30242
-3.34095
-3.39433
-3.46348
-3.5496
-3.65418
-3.77886
-3.92152
-4.04617
-4.14802
-4.24266
-4.34078
-4.45823
-4.60233
-4.77458
-4.97516
-5.2065
-5.47404
-5.78476
-6.14852
-6.58291
-3.27904
-3.2897
-3.31407
-3.35242
-3.40522
-3.47298
-3.5562
-3.65512
-3.7687
-3.89228
-4.01462
-4.1298
-4.2455
-4.37054
-4.5145
-4.68416
-4.88398
-5.11727
-5.38823
-5.70503
-6.07991
-6.52921
-7.08187
-3.27072
-3.28773
-3.31172
-3.34944
-3.4012
-3.46724
-3.54772
-3.6423
-3.74964
-3.86679
-3.98937
-4.11555
-4.2491
-4.39651
-4.56472
-4.76043
-4.99053
-5.26093
-5.57741
-5.95087
-6.39806
-6.94125
-7.61674
-3.24839
-3.27174
-3.29524
-3.3322
-3.38277
-3.44714
-3.52532
-3.61694
-3.72118
-3.8367
-3.96198
-4.09713
-4.24528
-4.41161
-4.60189
-4.82326
-5.08468
-5.39445
-5.76051
-6.19631
-6.72124
-7.3605
-8.14295
-3.21248
-3.24206
-3.26499
-3.30108
-3.35047
-3.41327
-3.48952
-3.57909
-3.68181
-3.79745
-3.9259
-4.06829
-4.22807
-4.41002
-4.6197
-4.86484
-5.15617
-5.5047
-5.92154
-6.42316
-7.03255
-7.77342
-8.65971
-3.16354
-3.19921
-3.22155
-3.25671
-3.30482
-3.36601
-3.44041
-3.52821
-3.62978
-3.74562
-3.8765
-4.02416
-4.19249
-4.38646
-4.61186
-4.87709
-5.19444
-5.5779
-6.04304
-6.61206
-7.31383
-8.17761
-9.21532
-3.10176
-3.14357
-3.16518
-3.19921
-3.24578
-3.30507
-3.37736
-3.46313
-3.56318
-3.67851
-3.81042
-3.96117
-4.13492
-4.33634
-4.57271
-4.85263
-5.18934
-5.60016
-6.10655
-6.73802
-7.53469
-8.54666
-9.82512
-3.02705
-3.07492
-3.09563
-3.12826
-3.17296
-3.23002
-3.29988
-3.38322
-3.48107
-3.59479
-3.72596
-3.877
-4.05203
-4.25676
-4.49806
-4.78514
-5.13226
-5.55818
-6.09179
-6.76965
-7.64706
-8.80575
-10.3567
-2.94019
-2.9935
-3.01319
-3.04427
-3.08695
-3.14159
-3.20869
-3.28905
-3.38381
-3.49448
-3.62278
-3.77107
-3.94337
-4.14558
-4.38482
-4.67009
-5.01536
-5.44196
-5.9805
-6.67472
-7.59406
-8.85181
-10.6182
-2.84278
-2.90068
-2.91933
-2.94879
-2.9893
-3.04123
-3.1051
-3.18169
-3.27216
-3.37806
-3.50111
-3.64347
-3.80875
-4.00267
-4.23231
-4.506
-4.83653
-5.2445
-5.76038
-6.42971
-7.32665
-8.58276
-10.4184
-2.73616
-2.79808
-2.8156
-2.84326
-2.8813
-2.93005
-2.99001
-3.06189
-3.14677
-3.24611
-3.36157
-3.49497
-3.64928
-3.82958
-4.04246
-4.29516
-4.59825
-4.96922
-5.43432
-6.03318
-6.83141
-7.94497
-9.58422
-2.62085
-2.68653
-2.70275
-2.72836
-2.76354
-2.80861
-2.86398
-2.93026
-3.00836
-3.09957
-3.20536
-3.32723
-3.46732
-3.62962
-3.81975
-4.04357
-4.30874
-4.628
-5.02022
-5.51315
-6.15103
-7.00622
-8.20232
-2.49718
-2.56637
-2.58115
-2.60447
-2.63649
-2.67746
-2.72769
-2.78766
-2.85805
-2.9399
-3.03442
-3.14277
-3.26628
-3.40755
-3.57076
-3.76024
-3.98061
-4.23937
-4.54714
-4.91791
-5.37199
-5.93591
-6.64281
-2.36576
-2.43808
-2.45134
-2.47223
-2.50087
-2.53743
-2.58214
-2.63531
-2.69739
-2.76905
-2.85122
-2.94473
-3.05024
-3.16892
-3.30319
-3.45577
-3.62871
-3.8247
-4.04732
-4.29939
-4.58249
-4.89359
-5.21635
-2.22745
-2.30243
-2.31411
-2.33248
-2.35761
-2.38959
-2.42856
-2.47466
-2.5281
-2.58923
-2.65854
-2.73656
-2.82348
-2.91936
-3.02483
-3.14085
-3.26761
-3.40433
-3.54945
-3.69904
-3.84454
-3.96951
-4.04343
-2.08315
-2.16033
-2.1704
-2.18622
-2.20779
-2.23514
-2.26829
-2.30725
-2.35203
-2.40265
-2.45918
-2.52177
-2.5903
-2.66416
-2.74261
-2.82491
-2.90978
-2.99453
-3.07476
-3.14339
-3.18878
-3.1925
-3.12648
-1.93377
-2.0127
-2.02118
-2.03447
-2.05253
-2.0753
-2.10271
-2.13467
-2.171
-2.21147
-2.25579
-2.30369
-2.35475
-2.40808
-2.46218
-2.51514
-2.56448
-2.60656
-2.63605
-2.64533
-2.62347
-2.5554
-2.42113
-1.7802
-1.86045
-1.86738
-1.87822
-1.89287
-1.91123
-1.93313
-1.95838
-1.98667
-2.0176
-2.05063
-2.08512
-2.12031
-2.15515
-2.18798
-2.21639
-2.23725
-2.24655
-2.23902
-2.20789
-2.14448
-2.03823
-1.87701
-1.62328
-1.70446
-1.70991
-1.71841
-1.72983
-1.74401
-1.76072
-1.77969
-1.80052
-1.8227
-1.84555
-1.8682
-1.88962
-1.90856
-1.92339
-1.93183
-1.93077
-1.91632
-1.88377
-1.82764
-1.74164
-1.61914
-1.45369
-1.46384
-1.54557
-1.54964
-1.55595
-1.56435
-1.57465
-1.58659
-1.5998
-1.61385
-1.62818
-1.64206
-1.65453
-1.66442
-1.67035
-1.67072
-1.66352
-1.64617
-1.61537
-1.56728
-1.49775
-1.40247
-1.27764
-1.12049
-1.30255
-1.38456
-1.38735
-1.39165
-1.39729
-1.40406
-1.41165
-1.4197
-1.42773
-1.43518
-1.4413
-1.44519
-1.4457
-1.44144
-1.43087
-1.41223
-1.38349
-1.34222
-1.28562
-1.21082
-1.11512
-0.996544
-0.854499
-1.14001
-1.22201
-1.22365
-1.22614
-1.22931
-1.2329
-1.23663
-1.24012
-1.24291
-1.24445
-1.24406
-1.2409
-1.23394
-1.22198
-1.20362
-1.17736
-1.14161
-1.09469
-1.03483
-0.960361
-0.869881
-0.762624
-0.639173
-0.97722
-1.05882
-1.05945
-1.06036
-1.06132
-1.0621
-1.06242
-1.06194
-1.06023
-1.05679
-1.05101
-1.04218
-1.02944
-1.01182
-0.988212
-0.957434
-0.918302
-0.869704
-0.810679
-0.740503
-0.658829
-0.565776
-0.462482
-0.812631
-0.89477
-0.894669
-0.89425
-0.893294
-0.891626
-0.889003
-0.885125
-0.879636
-0.872108
-0.862038
-0.84884
-0.831853
-0.810356
-0.783566
-0.750682
-0.710945
-0.663729
-0.608661
-0.545701
-0.475246
-0.398103
-0.315651
-0.651587
-0.730993
-0.73042
-0.728839
-0.726181
-0.722336
-0.717121
-0.710305
-0.701604
-0.690684
-0.677164
-0.660615
-0.640576
-0.61658
-0.588169
-0.554931
-0.516551
-0.472877
-0.424031
-0.370473
-0.313069
-0.253097
-0.192077
-0.481887
-0.572324
-0.571592
-0.569001
-0.564834
-0.559066
-0.551592
-0.542251
-0.530838
-0.517118
-0.500832
-0.481707
-0.459482
-0.43393
-0.404888
-0.372304
-0.336277
-0.297111
-0.25539
-0.212022
-0.168277
-0.125827
-0.0864962
423.312
29.2355
11.4597
10.4576
941.463
701.543
526.206
274.437
1036.44
946.138
875.015
808.858
1065.86
1028.39
995.36
966.214
1072.16
1067.93
1060.66
1052.59
24.6029
161.36
467.381
871.633
-4.91968
-5.00823
-5.05768
-5.07703
-4.9592
-5.05383
-5.15096
-5.25313
-5.02027
-5.10978
-5.20179
-5.29551
-5.10128
-5.18914
-5.27857
-5.37008
-5.20623
-5.2952
-5.38495
-5.47595
-5.34355
-5.43813
-5.53315
-5.62738
-5.52389
-5.63009
-5.7364
-5.8391
-5.76335
-5.88857
-6.0133
-6.13374
-6.08334
-6.2392
-6.39623
-6.55446
-6.50442
-6.71264
-6.92972
-7.15647
-7.04108
-7.33213
-7.64994
-8.001
-7.69167
-8.10302
-8.58752
-9.18718
-8.37546
-8.9086
-9.5985
-10.5626
-8.98416
-9.53228
-10.1677
-10.8104
-9.54488
-10.0659
-10.6086
-11.0733
-10.2262
-10.778
-11.2554
-11.37
-11.1964
-12.0804
-13.0023
-12.7873
-12.209
-13.5369
-15.0043
-15.0051
-12.8815
-14.5694
-16.4745
-16.7834
-12.955
-14.9432
-17.5038
-19.1059
-11.9224
-13.823
-16.6108
-20.1413
-9.75277
-10.8742
-12.2988
-14.1373
-7.39559
-7.8351
-8.2695
-8.65498
-5.45252
-5.53081
-5.54076
-5.45546
-4.00961
-3.93417
-3.79981
-3.59559
-2.97338
-2.84435
-2.67516
-2.46355
-2.2275
-2.08928
-1.92483
-1.73518
-1.68027
-1.55116
-1.4051
-1.24301
-1.26951
-1.15476
-1.02927
-0.893985
-0.955503
-0.855987
-0.749978
-0.638315
-0.711707
-0.62756
-0.539487
-0.448259
-0.519491
-0.450335
-0.378819
-0.305594
-0.365707
-0.310896
-0.254838
-0.197968
-0.241315
-0.200226
-0.158825
-0.117237
-0.139951
-0.112191
-0.08493
-0.0580783
-0.0566926
-0.0424071
-0.0294813
-0.0174771
9.18383
9.09021
9.06163
8.99366
8.95737
8.94501
8.94473
8.94824
8.95165
8.95356
8.95359
8.95183
8.9486
8.94438
8.93968
8.93508
8.93109
8.92809
8.92634
16.4364
9.02066
9.07413
8.95484
8.91502
8.91592
8.92858
8.94064
8.94898
8.95345
8.95448
8.95253
8.94822
8.94233
8.93573
8.92921
8.92355
8.91927
8.91677
771.859
23.4269
9.17064
8.85816
8.83882
8.87683
8.91208
8.93477
8.94809
8.95498
8.95669
8.954
8.94785
8.93943
8.93004
8.92087
8.91293
8.90693
8.90339
933.082
884.795
230.396
8.59256
8.72156
8.83923
8.9039
8.93385
8.94985
8.95849
8.96047
8.95633
8.94734
8.93525
8.92197
8.90918
8.89819
8.88994
8.88509
1042.03
1024.13
1008.32
504.628
8.6926
8.83034
8.91928
8.93852
8.95299
8.96349
8.96579
8.95939
8.94623
8.92902
8.91048
8.8929
8.87795
8.86684
8.86039
1139.57
1135.58
1133.36
1132.49
603.257
9.06086
8.9611
8.93456
8.95182
8.96877
8.97247
8.96283
8.94367
8.91944
8.89398
8.87031
8.85042
8.83578
8.82741
-4.44276
518.194
1254.1
1252.46
1264.45
366.128
8.96017
8.8715
8.93932
8.97398
8.98053
8.96585
8.93814
8.90448
8.87019
8.83904
8.81328
8.7945
8.78386
-5.3836
-5.5325
27.8166
1269.84
1371.27
1378.1
40.2674
8.86735
8.91547
8.98149
8.99
8.96667
8.92689
8.88108
8.83601
8.79607
8.76366
8.74028
8.72709
-5.42246
-5.63561
-5.82635
-5.32097
1099.85
1483.76
986.348
9.71001
8.88236
8.99429
8.99955
8.96148
8.90528
8.8447
8.78732
8.73769
8.69816
8.66996
8.65412
-5.4947
-5.70225
-5.89488
-6.08107
-5.60136
1512.87
1578.87
41.9346
9.00246
9.01142
9.00328
8.94287
8.86645
8.78924
8.71897
8.65958
8.61301
8.58018
8.56184
-5.59875
-5.80355
-5.97814
-6.13319
-6.26784
431.533
1668.53
413.892
9.38581
9.01272
8.98457
8.89889
8.8015
8.70772
8.62519
8.55707
8.5044
8.46762
8.44719
-5.75004
-5.95199
-6.11486
-6.23446
-6.40357
-7.1758
1727.58
808.14
9.67784
8.96191
8.92177
8.81551
8.70055
8.59299
8.50052
8.42574
8.36879
8.32934
8.30754
-5.96963
-6.18259
-6.34341
-6.42969
-6.55777
-6.88154
1638.08
1179.36
10.5182
8.86336
8.80426
8.68087
8.55426
8.43867
8.34053
8.26228
8.20352
8.16317
8.14097
-6.29059
-6.54242
-6.71565
-6.77532
-6.78932
-6.70869
1461.66
1145.6
10.2485
8.6781
8.61196
8.48351
8.35503
8.23996
8.14247
8.06495
8.00729
7.96806
7.94657
-6.76501
-7.09295
-7.29379
-7.29855
-7.22389
-6.92639
1506.37
833.454
9.47669
8.42902
8.33504
8.21614
8.09928
7.99501
7.90581
7.83395
7.78048
7.74434
7.72469
-7.46294
-7.94359
-8.16331
-8.01296
-7.78636
-7.15525
1622.2
344.318
8.48369
8.03599
7.96399
7.87982
7.79026
7.70651
7.63271
7.5715
7.52516
7.49384
7.47698
-8.50169
-9.35367
-9.47472
-9.01553
-8.43959
577.854
1657.99
14.7672
7.37296
7.48315
7.51598
7.48914
7.43799
7.38177
7.32837
7.28158
7.24482
7.21967
7.20628
-10.1821
-11.6919
-11.2715
-10.2759
-9.011
1442.51
412.792
7.23296
6.71648
6.93678
7.0393
7.06759
7.05727
7.03092
6.99989
6.9696
6.94401
6.92588
6.91635
-11.4329
-10.6658
-12.7018
-11.3778
1283.21
1181.71
9.12165
5.85966
6.16202
6.42022
6.56451
6.63629
6.66235
6.66442
6.65524
6.64172
6.62781
6.61705
6.61148
-7.33058
-5.52298
-12.5209
1021.05
1334.29
16.8491
5.09398
5.29605
5.66567
5.93187
6.10563
6.20891
6.26488
6.29145
6.302
6.30408
6.30137
6.29786
6.29614
-11.1875
-11.55
346.805
1262.4
80.6055
4.40742
4.34226
4.82131
5.19845
5.47612
5.66836
5.79423
5.87301
5.91951
5.94672
5.96219
5.9695
5.97274
5.97454
-10.7606
-8.58102
-2.9817
21.2084
3.23864
3.2501
3.88063
4.38633
4.76904
5.05372
5.25672
5.3978
5.49273
5.55415
5.59449
5.62066
5.63643
5.64564
5.65048
-13.5694
499.535
-3.51391
-0.779765
1.58988
2.76094
3.48843
4.00352
4.3848
4.66756
4.87418
5.02319
5.12742
5.19905
5.2489
5.28297
5.30551
5.3197
5.32706
-16.3456
1693.81
-1.18043
0.080015
1.5925
2.5714
3.22109
3.6957
4.05188
4.32067
4.52203
4.67102
4.77884
4.85652
4.91235
4.95175
4.97929
4.99733
5.00678
-18.5502
1726.11
1786.25
0.835549
2.0271
2.61262
3.07833
3.46085
3.76768
4.00961
4.19756
4.34033
4.44745
4.52747
4.5861
4.6286
4.65946
4.68021
4.69112
-21.1848
1809.88
1865.71
7.33327
2.6256
2.73181
2.99072
3.26773
3.51667
3.7264
3.89569
4.02865
4.13222
4.21138
4.27039
4.31445
4.34707
4.36944
4.38148
-27.3807
244.838
34.8214
4.81883
2.57253
2.68001
2.86295
3.07523
3.27927
3.45954
3.6102
3.73287
3.83088
3.9069
3.96516
4.00957
4.0425
4.06579
4.07922
-18.0719
-18.346
-3.58356
1.00537
2.07747
2.43061
2.65855
2.85794
3.03951
3.19991
3.33625
3.44941
3.54075
3.61319
3.67015
3.71353
3.74582
3.76949
3.78367
-9.1771
-6.86651
-2.20054
0.503219
1.61057
2.11222
2.40402
2.61757
2.79411
2.94401
3.07034
3.17493
3.26024
3.32948
3.38418
3.42564
3.45707
3.48054
3.49452
-5.19569
-3.5623
-1.30174
0.349068
1.28932
1.8166
2.14166
2.36973
2.54696
2.69131
2.81008
2.90791
2.98859
3.05435
3.10596
3.14552
3.17614
3.1986
3.21139
-3.22452
-2.10566
-0.775448
0.325791
1.08013
1.56936
1.89497
2.12674
2.30315
2.44261
2.55559
2.64839
2.7247
2.7864
2.83495
2.87296
2.90242
2.92298
2.934
-2.12503
-1.32387
-0.438686
0.341924
0.938609
1.36664
1.67207
1.8964
2.06684
2.20064
2.30839
2.39607
2.46751
2.52516
2.57105
2.60733
2.63479
2.65298
2.66237
-1.45141
-0.852548
-0.217453
0.361552
0.834862
1.1991
1.47349
1.68121
1.8413
1.9676
2.06873
2.15036
2.21681
2.27066
2.3137
2.3474
2.37222
2.38825
2.39652
-1.00866
-0.546521
-0.0690458
0.37377
0.751268
1.05567
1.29465
1.481
1.62733
1.74348
1.83625
1.91132
1.97274
2.02238
2.06169
2.09211
2.11429
2.12866
2.13621
-0.702359
-0.338917
0.029692
0.374529
0.676094
0.927473
1.13109
1.29386
1.42379
1.52753
1.61091
1.67908
1.73471
1.77908
1.81403
1.84114
1.86099
1.87394
1.88083
-0.482928
-0.195123
0.0929056
0.363404
0.603858
0.808855
0.978617
1.11701
1.22885
1.31905
1.39261
1.45288
1.50139
1.53989
1.57056
1.59457
1.61212
1.62355
1.62969
-0.323021
-0.0954907
0.12965
0.341158
0.530977
0.695095
0.833207
0.947384
1.0408
1.11729
1.18008
1.23105
1.27185
1.3047
1.33131
1.35207
1.36705
1.37679
1.3821
-0.206131
-0.0285492
0.145163
0.307948
0.454684
0.5827
0.691618
0.782692
0.858164
0.920447
0.971382
1.01259
1.04605
1.07357
1.09585
1.11289
1.12506
1.13305
1.13751
-0.121422
0.0129985
0.1429
0.264058
0.373387
0.469257
0.551434
0.620744
0.678547
0.726272
0.765327
0.797336
0.823877
0.845769
0.863129
0.876177
0.885534
0.8918
0.8954
-0.061784
0.0338969
0.125114
0.20962
0.285748
0.352629
0.410184
0.458926
0.499688
0.533484
0.561467
0.584798
0.604214
0.619919
0.632096
0.641249
0.647954
0.652539
0.655262
-0.0227617
0.0369036
0.0928905
0.144304
0.190421
0.230891
0.265758
0.295377
0.320299
0.34119
0.358727
0.373386
0.385355
0.394785
0.402053
0.407628
0.411817
0.414729
0.416566
-0.00210316
0.023132
0.0463598
0.0674489
0.0862277
0.102641
0.116781
0.128846
0.139092
0.147786
0.155125
0.161168
0.165956
0.169663
0.172558
0.174842
0.176592
0.177834
0.17879
1605.81
1606.44
1600.62
1591.97
1582.72
1572.89
1562.31
1551.14
1539.91
1529.47
1521
1516.01
1516.47
1524.81
1544.04
1578.21
1631.11
1706.37
1793.4
1839.02
1842.82
1741.45
1902.61
1604.99
1605.62
1599.8
1591.23
1582.02
1572.16
1561.52
1550.25
1538.91
1528.34
1519.7
1514.52
1514.74
1522.76
1541.43
1573.93
1623.47
1691.06
1769.56
1832.5
1849.39
1664.47
1855.77
1603.17
1603.68
1597.9
1589.51
1580.37
1570.45
1559.65
1548.17
1536.57
1525.7
1516.69
1511.04
1510.7
1518.01
1535.7
1566.58
1612.88
1673.88
1740.64
1795.41
1814.57
1661.9
1866.94
1600.23
1600.68
1594.96
1586.83
1577.79
1567.76
1556.7
1544.9
1532.9
1521.54
1511.93
1505.56
1504.33
1510.54
1526.78
1555.54
1598.34
1653.66
1713.61
1763.02
1787.42
1782.44
1968.7
1596.3
1596.66
1591.05
1583.24
1574.29
1564.08
1552.69
1540.43
1527.88
1515.84
1505.41
1498.04
1495.6
1500.31
1514.65
1540.86
1580.01
1630.33
1685.09
1733.62
1771.13
1833.7
2021.23
1591.49
1591.72
1586.26
1578.76
1569.87
1559.42
1547.59
1534.77
1521.52
1508.61
1497.11
1488.45
1484.44
1487.26
1499.28
1522.57
1557.98
1603.77
1654.38
1702.41
1748.25
1823.47
1980.71
1585.91
1585.94
1580.65
1573.46
1564.54
1553.78
1541.42
1527.91
1513.79
1499.82
1487.01
1476.75
1470.8
1471.3
1480.56
1500.57
1532.11
1573.6
1620.38
1666.62
1712.81
1775.84
1865.61
1579.68
1579.43
1574.32
1567.35
1558.34
1547.16
1534.19
1519.87
1504.72
1489.46
1475.07
1462.86
1454.57
1452.29
1458.3
1474.63
1502.11
1539.34
1582.1
1624.57
1662.64
1691.23
1641.42
9.04421
9.03531
9.02053
9.00371
8.98843
8.97647
8.968
8.96231
8.95842
8.95555
8.95314
8.95086
8.94862
8.94642
8.94435
8.9425
8.94103
8.94006
8.93965
9.04491
9.03592
9.02067
9.0034
8.98788
8.97591
8.96755
8.962
8.95824
8.95546
8.95309
8.95084
8.9486
8.94639
8.94429
8.94243
8.94094
8.93995
8.93954
9.04667
9.0374
9.021
9.00264
8.98658
8.9746
8.96652
8.96132
8.95787
8.95529
8.95302
8.9508
8.94853
8.94623
8.94402
8.94207
8.94051
8.93947
8.93904
9.04962
9.0399
9.02155
9.00134
8.98443
8.9725
8.96492
8.96029
8.95731
8.95504
8.95293
8.95073
8.94838
8.94593
8.94355
8.94144
8.93976
8.93863
8.93815
9.05378
9.04357
9.02223
8.99932
8.98127
8.96951
8.96271
8.95892
8.9566
8.95474
8.95283
8.95063
8.94814
8.94549
8.94288
8.94053
8.93866
8.93741
8.93687
9.05956
9.04857
9.02304
8.99628
8.97684
8.96552
8.95987
8.95723
8.95577
8.95443
8.95274
8.95052
8.94784
8.94491
8.94199
8.93934
8.9372
8.93577
8.93516
9.06776
9.05593
9.0239
8.99177
8.97084
8.9604
8.9564
8.95527
8.95487
8.95415
8.95269
8.95042
8.94749
8.94419
8.94086
8.93781
8.93533
8.93368
8.93298
9.07849
9.06807
9.02455
8.98502
8.96277
8.95403
8.95231
8.95308
8.95395
8.95394
8.95272
8.95036
8.94712
8.94335
8.93948
8.93593
8.93304
8.9311
8.93027
1570.88
1570.11
1565.27
1558.5
1549.21
1537.4
1523.51
1507.99
1491.3
1474.11
1457.32
1442.16
1430.28
1423.74
1424.84
1435.74
1457.53
1489.1
1526.23
1561.39
1580.9
1536.63
1054.18
1554.34
1552.81
1548.06
1541.09
1530.94
1517.73
1501.92
1483.84
1463.86
1442.48
1420.44
1398.76
1378.88
1362.8
1353.02
1352.34
1362.88
1384.18
1411.81
1434.68
1428.75
1343.84
1123.05
1536.14
1533.61
1528.6
1520.87
1509.38
1494.37
1476.13
1454.84
1430.65
1403.87
1374.94
1344.44
1313.31
1283.28
1257.22
1239.35
1234.56
1246.82
1268.98
1290.26
1291.22
1241.15
1108.7
1516.69
1513
1507.33
1498.34
1485.15
1467.94
1446.8
1421.61
1392.23
1358.63
1320.79
1278.6
1233.06
1187.17
1140.93
1098.78
1084.03
1080.21
1086.44
1124.28
1152.27
1143.83
1094.33
1496.31
1491.35
1484.72
1474.16
1458.93
1439.18
1414.74
1385
1349.45
1308.03
1261.78
1210.16
1144.62
921.667
386.468
30.6454
-1.71102
-2.40131
1.6879
59.8878
291.093
773.817
1070.22
1475.44
1468.98
1461.39
1449.11
1431.45
1408.9
1381.29
1347.57
1307.16
1260.51
1167.08
616.951
-2.15506
-2.42722
-1.97512
-1.52762
-0.746549
-4.20831
-4.4035
-4.42782
-4.32278
-4.42587
-1.16946
1452.62
1446.69
1438.2
1425.1
1404.51
1380.13
1353.54
1259.91
850.01
179.571
-3.77611
-3.46393
-3.22868
-3.00688
0.667708
-0.163999
-4.25665
-4.63881
-4.70559
-4.64606
-4.61136
-4.67595
-4.84862
1286.64
1343.81
1253.37
1079.31
764.365
356.527
44.2672
-3.02
-3.35585
-3.58442
-3.69148
-3.64551
-3.51894
-2.13753
-0.0299859
-4.05993
-4.24179
-4.44105
-4.53728
-4.58579
-4.63766
-4.73666
-4.89082
-2.65244
-2.83653
-2.91627
-2.95451
-2.86406
-3.05614
-3.20042
-3.28677
-3.50355
-3.69155
-3.82323
-3.86262
-3.85
-3.91461
-3.76581
-4.12346
-4.27494
-4.40857
-4.50472
-4.57832
-4.66829
-4.79187
-4.95298
-2.88143
-2.90094
-2.93615
-2.96855
-3.00677
-3.10084
-3.23637
-3.40931
-3.65582
-3.9251
-4.15056
-4.298
-4.29524
-4.10628
-4.04539
-4.20445
-4.33041
-4.44103
-4.53538
-4.62787
-4.73657
-4.87177
-5.03472
-2.96983
-2.97761
-2.99939
-3.03481
-3.08873
-3.17725
-3.31475
-3.53039
-3.87914
-4.20202
-3.80512
-3.89012
-4.43973
-4.2677
-3.8567
-4.30877
-4.39917
-4.49742
-4.59611
-4.7026
-4.82565
-4.97064
-5.13864
-3.03873
-3.04979
-3.07185
-3.10922
-3.16591
-3.2534
-3.39116
-3.65226
-4.11269
-4.35847
-4.51381
-4.17423
-4.30385
-4.09136
-4.29118
-4.38373
-4.46209
-4.56123
-4.6712
-4.79403
-4.93322
-5.09225
-5.27189
-3.10182
-3.11631
-3.14139
-3.18094
-3.23856
-3.32231
-3.44906
-3.40677
-3.86265
-4.39202
-4.68253
-4.74255
-4.63757
-4.45655
-4.37007
-4.42523
-4.51742
-4.63049
-4.75889
-4.90267
-5.06362
-5.24399
-5.4442
-3.15932
-3.17534
-3.20338
-3.24536
-3.30405
-3.38408
-3.49666
-2.00372
-2.12078
-4.27485
-4.42835
-4.52192
-4.43908
-4.35267
-4.37412
-4.46218
-4.57755
-4.7123
-4.86432
-5.03453
-5.22434
-5.43552
-5.66953
-3.20839
-3.22513
-3.25504
-3.29913
-3.35914
-3.4381
-3.53935
-3.62568
-1.86508
-3.96956
-4.24442
-4.2997
-4.30852
-4.33475
-4.40568
-4.51796
-4.65578
-4.81442
-4.99398
-5.19633
-5.42326
-5.67832
-5.9662
-3.24614
-3.26323
-3.2943
-3.33965
-3.40073
-3.47943
-3.57748
-3.70219
-3.47264
-3.56623
-4.15114
-4.22247
-4.28316
-4.35694
-4.46012
-4.59453
-4.75509
-4.94002
-5.1514
-5.39251
-5.66731
-5.983
-6.35074
-3.27119
-3.28844
-3.31989
-3.36573
-3.42686
-3.50434
-3.59944
-3.71395
-3.84899
-3.98925
-4.09955
-4.19529
-4.29008
-4.39644
-4.52678
-4.68495
-4.87124
-5.08672
-5.33533
-5.6235
-5.95909
-6.35534
-6.83315
-3.28284
-3.30015
-3.33146
-3.37699
-3.4372
-3.51264
-3.60371
-3.71023
-3.82979
-3.95436
-4.07313
-4.18715
-4.3062
-4.43966
-4.5958
-4.78007
-4.99625
-5.24764
-5.5402
-5.88438
-6.29381
-6.78995
-7.40986
-3.28085
-3.298
-3.32881
-3.37355
-3.43242
-3.50568
-3.5933
-3.69452
-3.80726
-3.92764
-4.0519
-4.18102
-4.32064
-4.47759
-4.6587
-4.87077
-5.1204
-5.41286
-5.7561
-6.16402
-6.65584
-7.2592
-8.02277
-3.26499
-3.28182
-3.31203
-3.35577
-3.41323
-3.48452
-3.56949
-3.66755
-3.77763
-3.89818
-4.02819
-4.16928
-4.32583
-4.50336
-4.70814
-4.94841
-5.23309
-5.56975
-5.96864
-6.4462
-7.02476
-7.73181
-8.601
-3.23546
-3.25188
-3.28139
-3.32411
-3.38019
-3.44972
-3.53265
-3.62882
-3.73804
-3.86005
-3.99518
-4.14572
-4.31595
-4.51098
-4.73721
-5.00404
-5.32262
-5.70375
-6.16046
-6.71276
-7.38537
-8.19797
-9.15569
-3.19281
-3.20879
-3.23752
-3.27914
-3.33378
-3.40155
-3.48262
-3.57725
-3.68588
-3.80911
-3.94807
-4.10545
-4.28591
-4.4948
-4.73882
-5.02838
-5.37702
-5.79909
-6.31286
-6.9444
-7.72376
-8.67574
-9.78835
-3.13737
-3.15282
-3.18064
-3.22092
-3.27382
-3.33956
-3.41852
-3.51131
-3.61886
-3.74228
-3.88322
-4.04481
-4.2314
-4.44978
-4.70647
-5.01289
-5.38432
-5.83974
-6.40452
-7.11264
-8.01065
-9.14915
-10.5767
-3.06897
-3.08378
-3.11044
-3.14908
-3.19992
-3.26332
-3.3398
-3.43025
-3.53586
-3.65808
-3.79879
-3.96119
-4.15026
-4.37237
-4.63514
-4.95007
-5.33416
-5.80959
-6.40979
-7.17896
-8.18501
-9.52419
-11.3304
-2.98784
-3.00192
-3.02729
-3.06414
-3.11274
-3.17354
-3.24715
-3.33454
-3.43705
-3.55631
-3.69422
-3.85388
-4.04031
-4.26008
-4.52097
-4.83409
-5.21682
-5.69492
-6.30461
-7.10044
-8.17112
-9.65865
-11.7876
-2.89533
-2.90866
-2.93269
-2.96764
-3.01381
-3.07163
-3.14174
-3.2251
-3.32307
-3.43733
-3.5697
-3.72293
-3.9017
-4.11257
-4.36299
-4.66308
-5.0292
-5.48655
-6.07213
-6.84335
-7.89835
-9.40787
-11.7107
-2.79306
-2.80558
-2.82815
-2.86097
-2.90431
-2.95859
-3.0244
-3.10262
-3.19453
-3.30173
-3.42588
-3.56924
-3.73579
-3.93153
-4.1633
-4.4395
-4.77386
-5.18792
-5.71376
-6.40171
-7.33881
-8.67632
-10.7712
-2.68189
-2.69348
-2.71437
-2.74473
-2.78482
-2.83498
-2.89571
-2.96776
-3.05223
-3.15055
-3.26418
-3.3948
-3.54536
-3.72085
-3.92706
-4.17033
-4.46059
-4.81354
-5.2518
-5.81031
-6.5456
-7.54843
-9.01753
-2.56214
-2.5727
-2.59173
-2.61938
-2.65584
-2.70139
-2.75643
-2.8215
-2.89747
-2.9855
-3.08679
-3.20251
-3.33446
-3.48613
-3.66196
-3.86619
-4.10457
-4.38637
-4.72356
-5.13296
-5.63848
-6.2685
-7.06408
-2.43428
-2.44376
-2.46082
-2.48557
-2.51814
-2.55875
-2.60764
-2.6652
-2.73197
-2.80877
-2.89652
-2.99594
-3.1078
-3.23393
-3.37705
-3.53956
-3.72361
-3.93245
-4.16956
-4.43707
-4.73506
-5.05567
-5.36525
-2.29908
-2.30744
-2.32246
-2.3442
-2.37274
-2.40819
-2.4507
-2.50044
-2.55768
-2.62283
-2.69644
-2.77891
-2.87028
-2.97083
-3.08149
-3.20291
-3.3348
-3.47601
-3.62406
-3.77312
-3.911
-4.01598
-4.04116
-2.15743
-2.16464
-2.17759
-2.19628
-2.22074
-2.25099
-2.28704
-2.32891
-2.37661
-2.43017
-2.48972
-2.55532
-2.62661
-2.70285
-2.78334
-2.86716
-2.95239
-3.03558
-3.11111
-3.16996
-3.19728
-3.17072
-3.05294
-2.01026
-2.01633
-2.02722
-2.0429
-2.06333
-2.08843
-2.11813
-2.1523
-2.19073
-2.23317
-2.27931
-2.32886
-2.38121
-2.43514
-2.48894
-2.54046
-2.58671
-2.62329
-2.64381
-2.63914
-2.59629
-2.49818
-2.32044
-1.85845
-1.86342
-1.87232
-1.88507
-1.9016
-1.92175
-1.94535
-1.97216
-2.00183
-2.03389
-2.06773
-2.10268
-2.13786
-2.17196
-2.20291
-2.22799
-2.24364
-2.24527
-2.2269
-2.18085
-2.09741
-1.96543
-1.77114
-1.70289
-1.7068
-1.71379
-1.72376
-1.73658
-1.75206
-1.76995
-1.7899
-1.81147
-1.83409
-1.85696
-1.87913
-1.89949
-1.91661
-1.92858
-1.9327
-1.92549
-1.90263
-1.85903
-1.78879
-1.68534
-1.54225
-1.35269
-1.54441
-1.54733
-1.55253
-1.5599
-1.56928
-1.58044
-1.59306
-1.60675
-1.62103
-1.63523
-1.64854
-1.65988
-1.66797
-1.67135
-1.66822
-1.65631
-1.63268
-1.59374
-1.53546
-1.45359
-1.34393
-1.20329
-1.02899
-1.38378
-1.38577
-1.38932
-1.39431