/*--------------------------------*- C++ -*----------------------------------*\
| =========                 |                                                 |
| \\      /  F ield         | OpenFOAM: The Open Source CFD Toolbox           |
|  \\    /   O peration     | Version:  v1912                                 |
|   \\  /    A nd           | Website:  www.openfoam.com                      |
|    \\/     M anipulation  |                                                 |
\*---------------------------------------------------------------------------*/
FoamFile
{
    version     2.0;
    format      ascii;
    class       surfaceScalarField;
    location    "0.25";
    object      phi;
}
// * * * * * * * * * * * * * * * * * * * * * * * * * * * * * * * * * * * * * //

dimensions      [0 3 -1 0 0 0 0];
oriented        oriented;


internalField   nonuniform List<scalar> 
17936
(
-5.23616e-08
8.88356e-08
-3.6474e-08
-1.05888e-06
2.69552e-06
-1.63664e-06
-4.38629e-06
5.90862e-06
-1.52233e-06
-7.22442e-06
8.38432e-06
-1.1599e-06
-9.4588e-06
1.05046e-05
-1.04584e-06
-1.15558e-05
1.26265e-05
-1.0707e-06
-1.37183e-05
1.48263e-05
-1.108e-06
-1.59437e-05
1.70637e-05
-1.12004e-06
-1.81804e-05
1.92887e-05
-1.10824e-06
-2.03835e-05
2.14599e-05
-1.07638e-06
-2.25123e-05
2.35341e-05
-1.02185e-06
-2.45184e-05
2.54562e-05
-9.37823e-07
-2.63376e-05
2.7151e-05
-8.13388e-07
-2.78829e-05
2.85183e-05
-6.35342e-07
-2.90391e-05
2.94225e-05
-3.83355e-07
-2.96385e-05
2.96172e-05
2.12593e-08
-2.92218e-05
2.83255e-05
8.96291e-07
-2.67395e-05
2.42013e-05
2.53819e-06
-2.03772e-05
1.49711e-05
5.40607e-06
-8.10739e-06
6.68056e-07
7.43934e-06
4.55292e-06
-5.64205e-06
1.08913e-06
8.49283e-06
-1.6985e-05
8.49212e-06
2.18922e-05
-1.46456e-05
-7.24653e-06
-1.15853e-07
1.26382e-07
-1.05292e-08
-1.10433e-06
2.75848e-06
3.29379e-06
-4.94794e-06
-4.46053e-06
5.9932e-06
3.0664e-06
-4.59907e-06
-7.32294e-06
8.50155e-06
2.34382e-06
-3.52242e-06
-9.5986e-06
1.06691e-05
2.115e-06
-3.18547e-06
-1.17453e-05
1.28403e-05
2.16325e-06
-3.25831e-06
-1.39553e-05
1.50856e-05
2.23711e-06
-3.36739e-06
-1.62246e-05
1.73659e-05
2.26115e-06
-3.40242e-06
-1.85039e-05
1.96337e-05
2.23797e-06
-3.36783e-06
-2.07507e-05
2.18501e-05
2.17502e-06
-3.2744e-06
-2.29265e-05
2.39735e-05
2.0672e-06
-3.11425e-06
-2.49844e-05
2.59505e-05
1.90105e-06
-2.86719e-06
-2.68623e-05
2.77084e-05
1.65508e-06
-2.50125e-06
-2.84761e-05
2.91509e-05
1.30349e-06
-1.97829e-06
-2.9716e-05
3.01528e-05
8.09142e-07
-1.24597e-06
-3.04409e-05
3.05505e-05
1.14295e-07
-2.23969e-07
-3.04617e-05
3.01538e-05
-9.38858e-07
1.24678e-06
-2.964e-05
2.89832e-05
-2.91802e-06
3.57474e-06
-2.83264e-05
2.77794e-05
-7.418e-06
7.96498e-06
-2.69774e-05
2.46514e-05
-1.41735e-05
1.64995e-05
-1.86944e-05
8.41585e-06
-1.08836e-05
2.11622e-05
2.10161e-06
-9.03248e-06
-1.54072e-05
2.23381e-05
1.11754e-05
-8.09956e-06
1.40106e-05
-1.70865e-05
-1.20249e-07
9.59309e-08
2.43176e-08
-1.14839e-06
2.79616e-06
6.59921e-06
-8.24698e-06
-4.4712e-06
5.97024e-06
6.11706e-06
-7.6161e-06
-7.27362e-06
8.4396e-06
4.6954e-06
-5.86138e-06
-9.53712e-06
1.06167e-05
4.25986e-06
-5.33943e-06
-1.17056e-05
1.28133e-05
4.3589e-06
-5.46662e-06
-1.39391e-05
1.50778e-05
4.50133e-06
-5.64003e-06
-1.62233e-05
1.737e-05
4.54598e-06
-5.69271e-06
-1.85132e-05
1.96486e-05
4.49997e-06
-5.63544e-06
-2.07722e-05
2.18794e-05
4.37698e-06
-5.48418e-06
-2.29652e-05
2.40233e-05
4.16588e-06
-5.224e-06
-2.50471e-05
2.60283e-05
3.83961e-06
-4.82083e-06
-2.69574e-05
2.78236e-05
3.35581e-06
-4.22192e-06
-2.86141e-05
2.93153e-05
2.6643e-06
-3.36546e-06
-2.9911e-05
3.03836e-05
1.69824e-06
-2.17081e-06
-3.07134e-05
3.08785e-05
3.58902e-07
-5.23983e-07
-3.0856e-05
3.06232e-05
-1.53438e-06
1.76717e-06
-3.01608e-05
2.94575e-05
-4.3677e-06
5.07098e-06
-2.85224e-05
2.74318e-05
-8.88206e-06
9.97257e-06
-2.64463e-05
2.60569e-05
-1.67461e-05
1.71355e-05
-2.60402e-05
2.46814e-05
-2.68401e-05
2.81989e-05
-2.10864e-05
1.6928e-05
-2.91724e-05
3.33307e-05
-1.11893e-05
5.09572e-06
1.62194e-05
-1.01258e-05
-4.84834e-08
-2.63319e-08
7.48153e-08
-1.21295e-06
2.85102e-06
9.89061e-06
-1.15287e-05
-4.48533e-06
5.93514e-06
9.09228e-06
-1.05421e-05
-7.20158e-06
8.35159e-06
7.01949e-06
-8.16951e-06
-9.45203e-06
1.05463e-05
6.42556e-06
-7.51981e-06
-1.16544e-05
1.27807e-05
6.58297e-06
-7.70932e-06
-1.39223e-05
1.50736e-05
6.78459e-06
-7.9359e-06
-1.62294e-05
1.73853e-05
6.84361e-06
-7.99951e-06
-1.85377e-05
1.96833e-05
6.77549e-06
-7.92115e-06
-2.08187e-05
2.19398e-05
6.59764e-06
-7.71871e-06
-2.30418e-05
2.41189e-05
6.29071e-06
-7.3678e-06
-2.51647e-05
2.61711e-05
5.81349e-06
-6.81995e-06
-2.71291e-05
2.80282e-05
5.10297e-06
-6.00203e-06
-2.88562e-05
2.96001e-05
4.08596e-06
-4.82979e-06
-3.02445e-05
3.07731e-05
2.66886e-06
-3.19742e-06
-3.11679e-05
3.14101e-05
7.24641e-07
-9.66851e-07
-3.14809e-05
3.13638e-05
-1.94436e-06
2.06154e-06
-3.10469e-05
3.05287e-05
-5.67633e-06
6.19451e-06
-2.98228e-05
2.89594e-05
-1.09614e-05
1.18248e-05
-2.79701e-05
2.69244e-05
-1.8032e-05
1.90777e-05
-2.62356e-05
2.65459e-05
-2.77293e-05
2.74191e-05
-2.76718e-05
2.77428e-05
-3.49609e-05
3.489e-05
-2.34963e-05
1.32423e-05
6.43196e-07
9.61076e-06
1.32622e-07
-2.74259e-07
1.41637e-07
-1.29941e-06
2.91892e-06
1.31589e-05
-1.47784e-05
-4.49766e-06
5.88574e-06
1.19624e-05
-1.33505e-05
-7.10939e-06
8.24402e-06
9.31164e-06
-1.04463e-05
-9.35167e-06
1.04659e-05
8.62357e-06
-9.73775e-06
-1.15976e-05
1.27458e-05
8.84649e-06
-9.99469e-06
-1.39053e-05
1.50707e-05
9.09433e-06
-1.02598e-05
-1.62382e-05
1.7405e-05
9.1608e-06
-1.03276e-05
-1.85687e-05
1.97272e-05
9.07304e-06
-1.02316e-05
-2.08777e-05
2.20166e-05
8.84833e-06
-9.98726e-06
-2.31397e-05
2.42413e-05
8.4566e-06
-9.55826e-06
-2.53157e-05
2.63551e-05
7.84205e-06
-8.88147e-06
-2.73509e-05
2.82933e-05
6.92159e-06
-7.86394e-06
-2.91707e-05
2.99706e-05
5.60023e-06
-6.40019e-06
-3.06789e-05
3.12802e-05
3.76063e-06
-4.3619e-06
-3.17582e-05
3.20966e-05
1.25543e-06
-1.59376e-06
-3.22793e-05
3.22931e-05
-2.11434e-06
2.10054e-06
-3.21284e-05
3.17824e-05
-6.62647e-06
6.97245e-06
-3.12613e-05
3.05818e-05
-1.25911e-05
1.32707e-05
-2.97734e-05
2.88574e-05
-2.00629e-05
2.09789e-05
-2.78069e-05
2.67412e-05
-2.78981e-05
2.89638e-05
-2.61974e-05
2.57902e-05
-3.45108e-05
3.4918e-05
-2.26424e-05
1.36872e-05
-1.95069e-05
2.84622e-05
4.54587e-07
-6.7617e-07
2.21583e-07
-1.40148e-06
2.99164e-06
1.63846e-05
-1.79748e-05
-4.50205e-06
5.82058e-06
1.47044e-05
-1.6023e-05
-7.00027e-06
8.12256e-06
1.15742e-05
-1.26965e-05
-9.2415e-06
1.03786e-05
1.08632e-05
-1.20002e-05
-1.15352e-05
1.27052e-05
1.1154e-05
-1.23239e-05
-1.38819e-05
1.5061e-05
1.14322e-05
-1.26113e-05
-1.62403e-05
1.74188e-05
1.15001e-05
-1.26785e-05
-1.85954e-05
1.97691e-05
1.13974e-05
-1.25711e-05
-2.09377e-05
2.20981e-05
1.11365e-05
-1.22969e-05
-2.32465e-05
2.4378e-05
1.06742e-05
-1.18057e-05
-2.5487e-05
2.65666e-05
9.94011e-06
-1.10197e-05
-2.76086e-05
2.86038e-05
8.83155e-06
-9.82673e-06
-2.95413e-05
3.04093e-05
7.23273e-06
-8.10075e-06
-3.11943e-05
3.1882e-05
5.00466e-06
-5.69228e-06
-3.2457e-05
3.29043e-05
1.98492e-06
-2.43221e-06
-3.32094e-05
3.33602e-05
-2.0191e-06
1.86833e-06
-3.33475e-05
3.31665e-05
-7.2349e-06
7.41593e-06
-3.2817e-05
3.23022e-05
-1.38662e-05
1.43811e-05
-3.16225e-05
3.07709e-05
-2.18589e-05
2.27104e-05
-2.97135e-05
2.82893e-05
-3.02942e-05
3.17183e-05
-2.63063e-05
2.37383e-05
-3.64919e-05
3.90599e-05
-1.97262e-05
1.21216e-05
-3.65568e-05
4.41614e-05
9.40848e-07
-1.25048e-06
3.09631e-07
-1.5136e-06
3.06434e-06
1.95464e-05
-2.10972e-05
-4.49712e-06
5.74361e-06
1.73055e-05
-1.8552e-05
-6.88282e-06
7.99817e-06
1.38145e-05
-1.49299e-05
-9.13226e-06
1.02933e-05
1.31493e-05
-1.43103e-05
-1.14736e-05
1.26631e-05
1.3504e-05
-1.46935e-05
-1.3855e-05
1.50466e-05
1.37968e-05
-1.49884e-05
-1.62375e-05
1.74285e-05
1.38631e-05
-1.5054e-05
-1.86198e-05
1.9811e-05
1.37532e-05
-1.49444e-05
-2.10005e-05
2.21859e-05
1.34694e-05
-1.46549e-05
-2.33639e-05
2.453e-05
1.29539e-05
-1.412e-05
-2.56794e-05
2.68058e-05
1.21218e-05
-1.32482e-05
-2.79018e-05
2.89587e-05
1.08517e-05
-1.19085e-05
-2.99662e-05
3.09133e-05
9.007e-06
-9.95407e-06
-3.17869e-05
3.25734e-05
6.42788e-06
-7.2143e-06
-3.3258e-05
3.38264e-05
2.93876e-06
-3.50711e-06
-3.42645e-05
3.45603e-05
-1.64599e-06
1.35018e-06
-3.47038e-05
3.46872e-05
-7.51549e-06
7.53214e-06
-3.45045e-05
3.41492e-05
-1.48172e-05
1.51725e-05
-3.36088e-05
3.28516e-05
-2.35227e-05
2.42799e-05
-3.18113e-05
3.03563e-05
-3.31757e-05
3.46307e-05
-2.81515e-05
2.47477e-05
-4.22337e-05
4.56375e-05
-1.97341e-05
1.22116e-05
-5.1633e-05
5.91555e-05
1.60731e-06
-2.01301e-06
4.05701e-07
-1.63358e-06
3.13361e-06
2.26241e-05
-2.41241e-05
-4.4815e-06
5.65801e-06
1.97629e-05
-2.09394e-05
-6.76409e-06
7.87921e-06
1.60442e-05
-1.71594e-05
-9.03127e-06
1.02151e-05
1.5483e-05
-1.66668e-05
-1.14156e-05
1.26206e-05
1.58914e-05
-1.70964e-05
-1.38245e-05
1.50267e-05
1.61854e-05
-1.73876e-05
-1.62288e-05
1.74329e-05
1.62515e-05
-1.74556e-05
-1.86402e-05
1.98509e-05
1.61451e-05
-1.73558e-05
-2.10638e-05
2.22772e-05
1.58539e-05
-1.70672e-05
-2.34883e-05
2.46934e-05
1.5305e-05
-1.65101e-05
-2.58885e-05
2.7068e-05
1.44004e-05
-1.55799e-05
-2.82253e-05
2.93524e-05
1.29994e-05
-1.41265e-05
-3.04398e-05
3.14766e-05
1.09446e-05
-1.19814e-05
-3.24504e-05
3.33473e-05
8.05431e-06
-8.95122e-06
-3.41528e-05
3.48521e-05
4.13948e-06
-4.8388e-06
-3.5431e-05
3.58764e-05
-9.80058e-07
5.34681e-07
-3.61789e-05
3.63295e-05
-7.46493e-06
7.31431e-06
-3.63206e-05
3.61414e-05
-1.54418e-05
1.56209e-05
-3.57733e-05
3.51809e-05
-2.49645e-05
2.55569e-05
-3.4294e-05
3.29949e-05
-3.6037e-05
3.73361e-05
-3.10487e-05
2.79985e-05
-4.89807e-05
5.20309e-05
-2.30385e-05
1.58856e-05
-6.67678e-05
7.39207e-05
5.15756e-07
-9.41257e-07
4.25501e-07
-1.0729e-06
1.58362e-06
-5.10713e-07
-2.03395e-06
2.40694e-06
-3.72993e-07
-2.71008e-06
2.96395e-06
-2.53875e-07
-3.19147e-06
3.40882e-06
-2.1735e-07
-3.62374e-06
3.83685e-06
-2.13113e-07
-4.0446e-06
4.24395e-06
-1.99355e-07
-4.43103e-06
4.60128e-06
-1.7025e-07
-4.75027e-06
4.87364e-06
-1.2337e-07
-4.96671e-06
5.02604e-06
-5.9337e-08
-5.04767e-06
5.0291e-06
1.85637e-08
-4.9704e-06
4.87375e-06
9.66503e-08
-4.73969e-06
4.56943e-06
1.7026e-07
-4.36393e-06
4.12478e-06
2.39145e-07
-3.85398e-06
3.5537e-06
3.00288e-07
-3.22635e-06
2.8751e-06
3.51246e-07
-2.50205e-06
2.11042e-06
3.91631e-07
-1.70345e-06
1.28387e-06
4.19575e-07
-8.54833e-07
4.22328e-07
4.32505e-07
1.40762e-06
-1.89427e-06
4.86652e-07
-1.07017e-06
1.71374e-06
1.1231e-06
-1.76667e-06
-2.33112e-06
2.87298e-06
9.03886e-07
-1.44575e-06
-3.33663e-06
3.74172e-06
6.61806e-07
-1.06689e-06
-4.11245e-06
4.4634e-06
5.62912e-07
-9.13865e-07
-4.80155e-06
5.12988e-06
5.2942e-07
-8.57752e-07
-5.44651e-06
5.74741e-06
4.89842e-07
-7.90746e-07
-6.0272e-06
6.27929e-06
4.13247e-07
-6.65337e-07
-6.49796e-06
6.67762e-06
2.96022e-07
-4.75685e-07
-6.81467e-06
6.90461e-06
1.45599e-07
-2.35538e-07
-6.94497e-06
6.93412e-06
-2.70304e-08
3.78815e-08
-6.87011e-06
6.75219e-06
-2.08621e-07
3.26536e-07
-6.57998e-06
6.35486e-06
-3.86797e-07
6.11912e-07
-6.07848e-06
5.75324e-06
-5.53401e-07
8.78647e-07
-5.38185e-06
4.96774e-06
-7.01218e-07
1.11533e-06
-4.51435e-06
4.02546e-06
-8.2522e-07
1.31411e-06
-3.50548e-06
2.95847e-06
-9.22434e-07
1.46944e-06
-2.38881e-06
1.80088e-06
-9.90091e-07
1.57802e-06
-1.19947e-06
5.88447e-07
-1.02584e-06
1.63687e-06
2.37358e-06
-2.83117e-06
4.57586e-07
-1.05534e-06
1.72827e-06
2.42057e-06
-3.0935e-06
-2.39902e-06
2.95472e-06
1.99103e-06
-2.54674e-06
-3.40161e-06
3.78437e-06
1.46174e-06
-1.8445e-06
-4.13881e-06
4.48248e-06
1.26172e-06
-1.60539e-06
-4.82074e-06
5.15284e-06
1.18812e-06
-1.52022e-06
-5.47497e-06
5.78193e-06
1.09417e-06
-1.40113e-06
-6.06729e-06
6.32487e-06
9.19622e-07
-1.1772e-06
-6.54886e-06
6.73363e-06
6.57591e-07
-8.42364e-07
-6.8743e-06
6.96705e-06
3.2675e-07
-4.19496e-07
-7.00871e-06
6.99695e-06
-4.9786e-08
6.15426e-08
-6.93066e-06
6.80968e-06
-4.46812e-07
5.67799e-07
-6.63413e-06
6.40499e-06
-8.39446e-07
1.06859e-06
-6.12473e-06
5.79507e-06
-1.20628e-06
1.53595e-06
-5.41964e-06
5.0013e-06
-1.53174e-06
1.95008e-06
-4.54371e-06
4.0509e-06
-1.80492e-06
2.29772e-06
-3.52688e-06
2.97595e-06
-2.01824e-06
2.56917e-06
-2.40265e-06
1.8112e-06
-2.16736e-06
2.75882e-06
-1.20621e-06
5.9216e-07
-2.24897e-06
2.86302e-06
3.23849e-06
-3.53486e-06
2.96367e-07
-8.88858e-07
1.63983e-06
3.79827e-06
-4.54924e-06
-2.4694e-06
3.07607e-06
3.1196e-06
-3.72627e-06
-3.49569e-06
3.83598e-06
2.21005e-06
-2.55034e-06
-4.16022e-06
4.49042e-06
1.94313e-06
-2.27333e-06
-4.82757e-06
5.16532e-06
1.85464e-06
-2.19239e-06
-5.49677e-06
5.81378e-06
1.7125e-06
-2.02951e-06
-6.11007e-06
6.37837e-06
1.43965e-06
-1.70795e-06
-6.61261e-06
6.80628e-06
1.03107e-06
-1.22474e-06
-6.95429e-06
7.05282e-06
5.14685e-07
-6.13207e-07
-7.09862e-06
7.08947e-06
-7.19209e-08
8.10771e-08
-7.02433e-06
6.90283e-06
-6.89127e-07
8.10626e-07
-6.72529e-06
6.49374e-06
-1.29892e-06
1.53047e-06
-6.20955e-06
5.87531e-06
-1.86754e-06
2.20178e-06
-5.49413e-06
5.06963e-06
-2.3711e-06
2.7956e-06
-4.60538e-06
4.1056e-06
-2.79346e-06
3.29324e-06
-3.57413e-06
3.01577e-06
-3.12345e-06
3.6818e-06
-2.43476e-06
1.83546e-06
-3.35368e-06
3.95298e-06
-1.22265e-06
6.01092e-07
-3.48026e-06
4.10181e-06
3.65487e-06
-3.63968e-06
-1.51909e-08
-5.25612e-07
1.52428e-06
5.39011e-06
-6.38877e-06
-2.58598e-06
3.25342e-06
4.38058e-06
-5.04802e-06
-3.62785e-06
3.90102e-06
2.85758e-06
-3.13075e-06
-4.17895e-06
4.49129e-06
2.59459e-06
-2.90694e-06
-4.83009e-06
5.17915e-06
2.53499e-06
-2.88405e-06
-5.5253e-06
5.859e-06
2.3542e-06
-2.68789e-06
-6.17172e-06
6.45591e-06
1.98362e-06
-2.26781e-06
-6.7043e-06
6.91076e-06
1.42427e-06
-1.63073e-06
-7.06962e-06
7.17652e-06
7.15618e-07
-8.2252e-07
-7.22833e-06
7.22301e-06
-8.84631e-08
9.37929e-08
-7.15959e-06
7.0377e-06
-9.32285e-07
1.05418e-06
-6.85799e-06
6.6222e-06
-1.7641e-06
1.99989e-06
-6.33237e-06
5.99115e-06
-2.53907e-06
2.88029e-06
-5.60221e-06
5.16881e-06
-3.22431e-06
3.65771e-06
-4.69505e-06
4.18504e-06
-3.79774e-06
4.30776e-06
-3.64306e-06
3.07354e-06
-4.2454e-06
4.81492e-06
-2.48106e-06
1.87022e-06
-4.55769e-06
5.16854e-06
-1.24561e-06
6.11953e-07
-4.72896e-06
5.36262e-06
3.71087e-06
-4.16637e-06
4.55493e-07
-1.08914e-06
2.29496e-06
7.56675e-06
-8.77257e-06
-2.97872e-06
3.37281e-06
5.62616e-06
-6.02025e-06
-3.64939e-06
3.89385e-06
3.38077e-06
-3.62523e-06
-4.16321e-06
4.47705e-06
3.21494e-06
-3.52879e-06
-4.82626e-06
5.19296e-06
3.24115e-06
-3.60785e-06
-5.56064e-06
5.91702e-06
3.03208e-06
-3.38846e-06
-6.25207e-06
6.55735e-06
2.56184e-06
-2.86713e-06
-6.82506e-06
7.048e-06
1.845e-06
-2.06794e-06
-7.22119e-06
7.33929e-06
9.34274e-07
-1.05237e-06
-7.39901e-06
7.3986e-06
-9.66667e-08
9.70786e-08
-7.33698e-06
7.2141e-06
-1.17662e-06
1.2995e-06
-7.03104e-06
6.78958e-06
-2.2384e-06
2.47986e-06
-6.4922e-06
6.14194e-06
-3.22569e-06
3.57595e-06
-5.74228e-06
5.2972e-06
-4.0964e-06
4.54148e-06
-4.81084e-06
4.28747e-06
-4.82392e-06
5.34728e-06
-3.73166e-06
3.14792e-06
-5.39114e-06
5.97489e-06
-2.54096e-06
1.91533e-06
-5.78646e-06
6.41209e-06
-1.27585e-06
6.27338e-07
-6.00354e-06
6.65205e-06
5.05012e-06
-6.29707e-06
1.24695e-06
-2.53045e-06
3.13815e-06
9.72695e-06
-1.03346e-05
-3.17662e-06
3.27986e-06
6.23455e-06
-6.33778e-06
-3.48173e-06
3.75126e-06
3.87997e-06
-4.14951e-06
-4.07196e-06
4.42734e-06
3.85973e-06
-4.21511e-06
-4.80735e-06
5.2023e-06
3.98683e-06
-4.38178e-06
-5.59956e-06
5.98628e-06
3.7588e-06
-4.14553e-06
-6.35106e-06
6.68385e-06
3.18518e-06
-3.51796e-06
-6.9763e-06
7.22102e-06
2.30129e-06
-2.54601e-06
-7.41159e-06
7.54344e-06
1.17692e-06
-1.30877e-06
-7.61295e-06
7.61837e-06
-9.45373e-08
8.91254e-08
-7.5586e-06
7.43418e-06
-1.42292e-06
1.54735e-06
-7.2464e-06
6.99753e-06
-2.7247e-06
2.97357e-06
-6.69036e-06
6.32842e-06
-3.93182e-06
4.29377e-06
-5.91534e-06
5.4556e-06
-4.99352e-06
5.45326e-06
-4.95347e-06
4.41359e-06
-5.87844e-06
6.41831e-06
-3.84056e-06
3.23915e-06
-6.5671e-06
7.1685e-06
-2.6142e-06
1.97036e-06
-7.04635e-06
7.69019e-06
-1.3125e-06
6.45608e-07
-7.30921e-06
7.9761e-06
-1.60859e-05
8.89549e-06
7.19045e-06
-3.69224e-06
3.56593e-06
1.06968e-05
-1.05705e-05
-3.26799e-06
3.22899e-06
6.37255e-06
-6.33355e-06
-3.34421e-06
3.60482e-06
4.42336e-06
-4.68396e-06
-3.95621e-06
4.35146e-06
4.59438e-06
-4.98963e-06
-4.77224e-06
5.20725e-06
4.79616e-06
-5.23117e-06
-5.64437e-06
6.07047e-06
4.55102e-06
-4.97712e-06
-6.4725e-06
6.83966e-06
3.86721e-06
-4.23437e-06
-7.16228e-06
7.43247e-06
2.80327e-06
-3.07347e-06
-7.64405e-06
7.79176e-06
1.4481e-06
-1.59581e-06
-7.87231e-06
7.88408e-06
-8.07432e-08
6.89726e-08
-7.82589e-06
7.69901e-06
-1.67299e-06
1.79987e-06
-7.50498e-06
7.24685e-06
-3.22688e-06
3.48501e-06
-6.92763e-06
6.55114e-06
-4.66269e-06
5.03918e-06
-6.12175e-06
5.6442e-06
-5.92147e-06
6.39902e-06
-5.12298e-06
4.56327e-06
-6.96772e-06
7.52743e-06
-3.96973e-06
3.3473e-06
-7.77999e-06
8.40241e-06
-2.70102e-06
2.03556e-06
-8.34447e-06
9.00993e-06
-1.35587e-06
6.66833e-07
-8.65374e-06
9.34278e-06
3.03214e-06
-4.26872e-06
1.23658e-06
-3.80453e-06
6.83855e-06
2.55947e-05
-2.86287e-05
-9.475e-06
1.18086e-05
2.2084e-05
-2.44176e-05
-1.40986e-05
1.64861e-05
1.82766e-05
-2.06642e-05
-1.89845e-05
2.15509e-05
1.78607e-05
-2.04271e-05
-2.41414e-05
2.6731e-05
1.83074e-05
-2.0897e-05
-2.93139e-05
3.18949e-05
1.85944e-05
-2.11754e-05
-3.44817e-05
3.70809e-05
1.86666e-05
-2.12658e-05
-3.96965e-05
4.23302e-05
1.85769e-05
-2.12105e-05
-4.4981e-05
4.76468e-05
1.82957e-05
-2.09615e-05
-5.03242e-05
5.30077e-05
1.77364e-05
-2.04199e-05
-5.56915e-05
5.83663e-05
1.67885e-05
-1.94633e-05
-6.10205e-05
6.36393e-05
1.52924e-05
-1.79112e-05
-6.6204e-05
6.86933e-05
1.30678e-05
-1.55571e-05
-7.10807e-05
7.33364e-05
9.90875e-06
-1.21644e-05
-7.54269e-05
7.73175e-05
5.60887e-06
-7.49948e-06
-7.89739e-05
8.03661e-05
-1.1143e-08
-1.38114e-06
-8.14637e-05
8.22531e-05
-7.08078e-06
6.29137e-06
-8.27149e-05
8.28352e-05
-1.57105e-05
1.55902e-05
-8.2595e-05
8.19586e-05
-2.60421e-05
2.66784e-05
-8.08593e-05
7.91874e-05
-3.84722e-05
4.0144e-05
-7.67666e-05
7.34327e-05
-5.46342e-05
5.79681e-05
-6.89501e-05
6.55717e-05
-8.1337e-05
8.47154e-05
5.72787e-06
-7.40745e-06
1.67957e-06
-4.31274e-06
7.0573e-06
3.15247e-05
-3.42693e-05
-9.34469e-06
1.14737e-05
2.66384e-05
-2.87674e-05
-1.372e-05
1.61496e-05
2.30704e-05
-2.55e-05
-1.87053e-05
2.13117e-05
2.30207e-05
-2.56271e-05
-2.39232e-05
2.65267e-05
2.34989e-05
-2.61024e-05
-2.91284e-05
3.17403e-05
2.37738e-05
-2.63858e-05
-3.43738e-05
3.70367e-05
2.38978e-05
-2.65606e-05
-3.97338e-05
4.24686e-05
2.38954e-05
-2.66302e-05
-4.52432e-05
4.80593e-05
2.37026e-05
-2.65187e-05
-5.09178e-05
5.38189e-05
2.3211e-05
-2.6112e-05
-5.67625e-05
5.97459e-05
2.22881e-05
-2.52715e-05
-6.27648e-05
6.5812e-05
2.07326e-05
-2.37798e-05
-6.88755e-05
7.19369e-05
1.8311e-05
-2.13725e-05
-7.49668e-05
7.79262e-05
1.47461e-05
-1.77055e-05
-8.07679e-05
8.34422e-05
9.76075e-06
-1.24351e-05
-8.58999e-05
8.80998e-05
3.17184e-06
-5.37178e-06
-9.00222e-05
9.16414e-05
-5.08341e-06
3.46424e-06
-9.2962e-05
9.39919e-05
-1.50073e-05
1.39774e-05
-9.47612e-05
9.53137e-05
-2.67089e-05
2.61564e-05
-9.57457e-05
9.6217e-05
-4.06664e-05
4.01951e-05
-9.70237e-05
9.85437e-05
-5.81159e-05
5.65958e-05
-0.00010155
0.0001062
-8.01986e-05
7.55486e-05
9.30268e-06
-1.14048e-05
2.10215e-06
-4.76727e-06
7.19398e-06
3.68563e-05
-3.92831e-05
-9.18788e-06
1.12023e-05
3.08282e-05
-3.28426e-05
-1.3458e-05
1.59226e-05
2.79506e-05
-3.04152e-05
-1.84879e-05
2.10763e-05
2.82315e-05
-3.08199e-05
-2.36605e-05
2.62445e-05
2.86994e-05
-3.12834e-05
-2.88431e-05
3.14703e-05
2.90077e-05
-3.16348e-05
-3.41364e-05
3.68487e-05
2.92507e-05
-3.1963e-05
-3.96135e-05
4.24377e-05
2.94111e-05
-3.22353e-05
-4.53288e-05
4.8296e-05
2.94075e-05
-3.23747e-05
-5.13505e-05
5.45041e-05
2.91277e-05
-3.22812e-05
-5.77698e-05
6.11571e-05
2.84355e-05
-3.18228e-05
-6.46669e-05
6.828e-05
2.71008e-05
-3.07139e-05
-7.1956e-05
7.56476e-05
2.4794e-05
-2.84855e-05
-7.9322e-05
8.29547e-05
2.10732e-05
-2.47058e-05
-8.65245e-05
9.00078e-05
1.55491e-05
-1.90324e-05
-9.33638e-05
9.65353e-05
8.0157e-06
-1.11872e-05
-9.94337e-05
0.000102016
-1.4286e-06
-1.15377e-06
-0.000104256
0.000106206
-1.25286e-05
1.05789e-05
-0.000107858
0.000109251
-2.51425e-05
2.37486e-05
-0.000110551
0.000111968
-3.91368e-05
3.77199e-05
-0.000113709
0.000116005
-5.45008e-05
5.2204e-05
-0.000119185
0.00012334
-7.10627e-05
6.69068e-05
1.37021e-05
-1.61823e-05
2.48019e-06
-5.12176e-06
7.23313e-06
4.155e-05
-4.36614e-05
-9.01552e-06
1.09904e-05
3.48297e-05
-3.68045e-05
-1.32669e-05
1.57256e-05
3.28828e-05
-3.53415e-05
-1.82446e-05
2.07702e-05
3.33803e-05
-3.5906e-05
-2.32998e-05
2.58496e-05
3.38497e-05
-3.63994e-05
-2.84367e-05
3.10745e-05
3.42644e-05
-3.69023e-05
-3.37741e-05
3.65456e-05
3.4698e-05
-3.74696e-05
-3.94002e-05
4.23496e-05
3.51129e-05
-3.80623e-05
-4.54032e-05
4.85645e-05
3.54447e-05
-3.8606e-05
-5.18255e-05
5.51578e-05
3.55956e-05
-3.89278e-05
-5.85124e-05
6.18253e-05
3.53838e-05
-3.86967e-05
-6.50204e-05
6.80841e-05
3.43567e-05
-3.74204e-05
-7.11361e-05
7.44895e-05
3.20254e-05
-3.53788e-05
-7.8471e-05
8.3159e-05
2.83998e-05
-3.30878e-05
-8.8386e-05
9.36617e-05
2.28874e-05
-2.81631e-05
-9.84545e-05
0.000102554
1.48278e-05
-1.89271e-05
-0.000106092
0.00010933
4.65765e-06
-7.89549e-06
-0.000113117
0.000116598
-7.57337e-06
4.09244e-06
-0.000119593
0.000122264
-2.17916e-05
1.91209e-05
-0.000124677
0.000127036
-3.61487e-05
3.37904e-05
-0.000129453
0.000131876
-5.00638e-05
4.76412e-05
-0.000134311
0.000136885
-6.34369e-05
6.08624e-05
1.88347e-05
-2.16329e-05
2.79816e-06
-5.36647e-06
7.19399e-06
4.56247e-05
-4.74522e-05
-8.85196e-06
1.08393e-05
3.87794e-05
-4.07668e-05
-1.31292e-05
1.5551e-05
3.77831e-05
-4.02049e-05
-1.80043e-05
2.04689e-05
3.83991e-05
-4.08637e-05
-2.2959e-05
2.54907e-05
3.89424e-05
-4.14741e-05
-2.80726e-05
3.07055e-05
3.95591e-05
-4.2192e-05
-3.33815e-05
3.60803e-05
4.02751e-05
-4.2974e-05
-3.8766e-05
4.13844e-05
4.10166e-05
-4.36351e-05
-4.38656e-05
4.61269e-05
4.16152e-05
-4.38765e-05
-4.81202e-05
4.9876e-05
4.17347e-05
-4.34906e-05
-5.16295e-05
5.39172e-05
4.11043e-05
-4.33921e-05
-5.74935e-05
6.36867e-05
4.0194e-05
-4.63872e-05
-7.28389e-05
8.56218e-05
4.09199e-05
-5.37029e-05
-0.000100789
0.000114819
4.16256e-05
-5.56553e-05
-0.000129232
0.000146111
3.77467e-05
-5.46256e-05
-0.000163791
0.000185397
2.69828e-05
-4.85891e-05
-0.000208995
0.00022263
1.22252e-05
-2.58605e-05
-0.000212878
0.000187074
-4.45381e-06
3.02578e-05
-0.000163572
0.000149496
-2.10991e-05
3.51754e-05
-0.000142425
0.000139124
-3.3671e-05
3.69717e-05
-0.000138255
0.000138764
-4.5371e-05
4.48622e-05
-0.000140789
0.000144054
-5.79253e-05
5.46604e-05
2.45115e-05
-2.74163e-05
2.90484e-06
-5.32135e-06
6.91826e-06
4.91629e-05
-5.07598e-05
-8.5402e-06
1.0541e-05
4.27744e-05
-4.47752e-05
-1.27614e-05
1.50155e-05
4.25885e-05
-4.48426e-05
-1.72332e-05
1.94065e-05
4.32608e-05
-4.54341e-05
-2.15279e-05
2.35673e-05
4.38947e-05
-4.59341e-05
-2.54851e-05
2.72427e-05
4.45801e-05
-4.63377e-05
-2.88081e-05
3.01492e-05
4.51634e-05
-4.65044e-05
-3.13008e-05
3.24599e-05
4.53731e-05
-4.65322e-05
-3.40181e-05
3.65793e-05
4.51648e-05
-4.77259e-05
-4.12683e-05
4.95527e-05
4.56437e-05
-5.39281e-05
-6.26527e-05
8.20501e-05
5.04284e-05
-6.98258e-05
-0.000106737
0.000137278
6.30085e-05
-9.35499e-05
-0.000162422
0.000173189
7.79058e-05
-8.86726e-05
-0.000162488
0.000142815
6.85466e-05
-4.88733e-05
-0.000130096
0.000132739
5.29142e-05
-5.55568e-05
-0.000142389
0.000151376
6.29332e-05
-7.19201e-05
-0.000159724
0.000168444
3.84325e-05
-4.71528e-05
-0.000178281
0.00018835
-2.48638e-05
1.47944e-05
-0.000195499
0.00019662
-5.40495e-05
5.29288e-05
-0.000191756
0.000183616
-5.11738e-05
5.93141e-05
-0.000175093
0.000166458
-5.39364e-05
6.25715e-05
-0.000156787
0.00014927
-5.34452e-05
6.09625e-05
3.04339e-05
-3.40658e-05
3.63184e-06
-4.54077e-06
5.47889e-06
5.21532e-05
-5.30913e-05
-6.78506e-06
8.37181e-06
4.66559e-05
-4.82426e-05
-9.9678e-06
1.14628e-05
4.67671e-05
-4.8262e-05
-1.28753e-05
1.42597e-05
4.71498e-05
-4.85342e-05
-1.56616e-05
1.7176e-05
4.73684e-05
-4.88828e-05
-1.90098e-05
2.14918e-05
4.7528e-05
-5.001e-05
-2.52506e-05
3.10273e-05
4.80391e-05
-5.38158e-05
-3.96672e-05
5.29678e-05
5.02036e-05
-6.35042e-05
-7.18515e-05
9.61667e-05
5.78952e-05
-8.22104e-05
-0.000128618
0.000159257
7.62842e-05
-0.000106923
-0.000178497
0.000178567
0.00010348
-0.000103549
-0.000167046
0.000147759
9.89442e-05
-7.96574e-05
-0.000124681
9.50096e-05
6.17578e-05
-3.20868e-05
-7.66624e-05
8.37905e-05
3.41621e-05
-4.12902e-05
-9.78121e-05
0.000106155
6.85274e-05
-7.68706e-05
-0.00010584
9.57303e-05
7.17062e-05
-6.15964e-05
-8.1935e-05
7.27009e-05
4.53501e-05
-3.61161e-05
-7.23647e-05
7.87932e-05
-5.9572e-06
-4.7124e-07
-9.04068e-05
0.000103096
-4.16064e-05
2.89168e-05
-0.000114713
0.000124373
-5.51732e-05
4.55127e-05
-0.000132394
0.000139728
-6.26309e-05
5.52971e-05
-0.000146272
0.000151122
-6.55934e-05
6.07438e-05
4.0193e-05
-5.14125e-05
1.12195e-05
-8.92021e-06
7.65449e-06
5.31014e-05
-5.18357e-05
-8.49484e-06
1.11042e-05
4.96918e-05
-5.23012e-05
-1.44572e-05
1.84988e-05
4.99809e-05
-5.40224e-05
-2.36622e-05
3.05636e-05
5.09506e-05
-5.7852e-05
-3.91318e-05
4.97087e-05
5.31005e-05
-6.36774e-05
-6.41066e-05
8.44934e-05
5.83459e-05
-7.87327e-05
-0.000108685
0.000130946
6.96155e-05
-9.1876e-05
-0.000147046
0.00014878
9.59315e-05
-9.76647e-05
-0.000145144
0.00014141
0.000102752
-9.90176e-05
-0.000136364
0.000129213
0.000100801
-9.36498e-05
-0.000121478
0.000114126
8.79142e-05
-8.05624e-05
-0.000106476
9.84339e-05
6.51773e-05
-5.71352e-05
-8.93291e-05
8.39918e-05
1.42174e-05
-8.88023e-06
-8.7329e-05
8.95927e-05
5.13132e-05
-5.35769e-05
-8.90404e-05
8.25245e-05
7.81348e-05
-7.1619e-05
-7.01327e-05
5.68622e-05
4.54096e-05
-3.21391e-05
-4.69132e-05
4.09597e-05
2.51556e-05
-1.92021e-05
-3.87932e-05
4.07004e-05
4.69509e-06
-6.60223e-06
-4.51768e-05
5.20553e-05
-1.8146e-05
1.12676e-05
-6.0409e-05
6.94292e-05
-3.47969e-05
2.57767e-05
-7.86977e-05
8.80462e-05
-4.51641e-05
3.58156e-05
-9.73617e-05
0.000106493
-5.12337e-05
4.21028e-05
6.32911e-05
-6.37163e-05
4.25188e-07
-1.80181e-05
2.68904e-05
5.21126e-05
-6.09849e-05
-3.41154e-05
4.11301e-05
5.83129e-05
-6.53276e-05
-4.85858e-05
5.5814e-05
6.36507e-05
-7.0879e-05
-6.144e-05
6.44312e-05
7.41049e-05
-7.70961e-05
-6.82709e-05
7.32253e-05
7.63105e-05
-8.12649e-05
-7.82907e-05
8.25582e-05
8.34981e-05
-8.77656e-05
-8.59284e-05
8.94816e-05
9.27785e-05
-9.63317e-05
-9.41897e-05
9.99787e-05
9.70772e-05
-0.000102866
-0.000106277
0.00011334
9.97007e-05
-0.000106763
-0.000120679
0.000126901
9.56671e-05
-0.00010189
-0.000131146
0.000132817
7.99117e-05
-8.15831e-05
-0.000131224
0.00012632
5.13688e-05
-4.64641e-05
-0.000122476
0.000122886
9.59982e-06
-1.00098e-05
-0.000115461
0.00010008
4.62453e-05
-3.08647e-05
-8.48064e-05
7.26708e-05
6.13717e-05
-4.92361e-05
-6.48683e-05
6.13218e-05
2.5307e-05
-2.17604e-05
-5.98238e-05
5.9068e-05
1.71566e-05
-1.64008e-05
-5.92542e-05
6.08649e-05
7.68338e-06
-9.294e-06
-6.38295e-05
6.82287e-05
-6.59781e-06
2.19866e-06
-7.36411e-05
7.98081e-05
-1.87811e-05
1.26142e-05
-8.64706e-05
9.33936e-05
-2.80569e-05
2.11339e-05
-0.00010035
0.000107098
-3.45916e-05
2.7843e-05
6.07414e-05
-6.09561e-05
2.14715e-07
-4.66712e-06
1.18824e-05
7.17395e-05
-7.89548e-05
-1.82919e-05
2.36921e-05
7.13383e-05
-7.67385e-05
-2.86013e-05
3.33895e-05
7.56565e-05
-8.04447e-05
-3.81512e-05
4.29899e-05
8.11263e-05
-8.59649e-05
-4.82137e-05
5.3993e-05
8.68037e-05
-9.2583e-05
-6.02633e-05
6.67982e-05
9.42696e-05
-0.000100804
-7.34666e-05
8.05192e-05
0.000102977
-0.00011003
-8.88024e-05
9.85769e-05
0.000111284
-0.000121059
-0.000108574
0.000116975
0.00011565
-0.000124051
-0.000122965
0.00012744
0.00010833
-0.000112805
-0.000131451
0.0001348
8.43995e-05
-8.77484e-05
-0.000136259
0.00013404
4.26821e-05
-4.04628e-05
-0.000127554
0.000119146
5.93921e-06
2.46833e-06
-0.000109425
9.86188e-05
1.55943e-05
-4.78791e-06
-8.62892e-05
7.51839e-05
3.62379e-05
-2.51326e-05
-6.88559e-05
6.69414e-05
1.92203e-05
-1.73058e-05
-6.69734e-05
6.75836e-05
1.63876e-05
-1.69977e-05
-6.88069e-05
7.09869e-05
1.11052e-05
-1.32852e-05
-7.4229e-05
7.84493e-05
2.02742e-06
-6.24764e-06
-8.34662e-05
8.90791e-05
-6.79815e-06
1.18529e-06
-9.51094e-05
0.000101396
-1.45978e-05
8.3108e-06
-0.000107785
0.000114139
-2.13354e-05
1.49819e-05
6.32453e-05
-6.66627e-05
3.41739e-06
-6.65636e-06
1.0303e-05
8.41329e-05
-8.77796e-05
-1.41877e-05
1.83551e-05
8.14016e-05
-8.5569e-05
-2.25577e-05
2.67196e-05
8.50745e-05
-8.92364e-05
-3.08785e-05
3.51258e-05
9.06376e-05
-9.48849e-05
-3.95853e-05
4.43749e-05
9.78564e-05
-0.000102646
-4.95512e-05
5.51589e-05
0.000106822
-0.000112429
-6.16366e-05
7.01586e-05
0.000117666
-0.000126188
-8.12627e-05
9.16259e-05
0.000132045
-0.000142408
-9.69554e-05
9.6817e-05
0.000129239
-0.000129101
-9.45771e-05
9.42064e-05
0.000114143
-0.000113772
-9.62212e-05
9.83713e-05
9.07784e-05
-9.29285e-05
-9.93036e-05
9.82903e-05
3.96718e-05
-3.86585e-05
-9.4248e-05
8.68078e-05
-1.21619e-05
1.96021e-05
-8.07384e-05
7.49973e-05
-3.47733e-06
9.21841e-06
-6.93162e-05
6.55775e-05
1.76531e-05
-1.39143e-05
-6.48913e-05
6.63021e-05
1.67777e-05
-1.81885e-05
-6.83714e-05
7.06205e-05
1.83799e-05
-2.06289e-05
-7.32695e-05
7.65677e-05
1.59857e-05
-1.92839e-05
-8.05732e-05
8.52245e-05
1.06329e-05
-1.52842e-05
-9.04266e-05
9.60761e-05
4.38073e-06
-1.00301e-05
-0.000102067
0.000108291
-2.12679e-06
-4.09734e-06
-0.000114636
0.000120997
-8.68773e-06
2.32707e-06
7.05994e-05
-7.46392e-05
4.03974e-06
-6.36873e-06
8.52823e-06
9.04789e-05
-9.26384e-05
-1.13123e-05
1.4396e-05
8.91865e-05
-9.22702e-05
-1.75056e-05
2.06102e-05
9.28795e-05
-9.59841e-05
-2.3723e-05
2.68836e-05
9.86441e-05
-0.000101805
-3.01425e-05
3.35487e-05
0.000106856
-0.000110262
-3.71402e-05
4.12133e-05
0.000117443
-0.000121517
-4.67414e-05
5.47776e-05
0.000135136
-0.000143172
-6.26278e-05
6.37243e-05
0.000149315
-0.000150411
-5.77348e-05
5.12871e-05
0.000124327
-0.000117879
-4.92492e-05
4.81009e-05
0.000113153
-0.000112005
-4.57847e-05
4.38923e-05
9.3155e-05
-9.12625e-05
-4.27048e-05
4.11663e-05
3.67694e-05
-3.52308e-05
-4.04476e-05
4.40839e-05
-2.21717e-05
1.85354e-05
-4.80688e-05
5.05548e-05
-1.08869e-05
8.4009e-06
-5.2933e-05
5.59431e-05