/*--------------------------------*- C++ -*----------------------------------*\
| =========                 |                                                 |
| \\      /  F ield         | OpenFOAM: The Open Source CFD Toolbox           |
|  \\    /   O peration     | Version:  v1912                                 |
|   \\  /    A nd           | Website:  www.openfoam.com                      |
|    \\/     M anipulation  |                                                 |
\*---------------------------------------------------------------------------*/
FoamFile
{
    version     2.0;
    format      ascii;
    class       volVectorField;
    location    "0.25";
    object      U;
}
// * * * * * * * * * * * * * * * * * * * * * * * * * * * * * * * * * * * * * //

dimensions      [0 1 -1 0 0 0 0];


internalField   nonuniform List<vector> 
9072
(
(-0.00829912 0.00076562 0)
(0.0420735 -0.00862954 0)
(0.117989 -0.00798255 0)
(0.178735 -0.00604175 0)
(0.227966 -0.00544862 0)
(0.27595 -0.00559506 0)
(0.325766 -0.00579954 0)
(0.376767 -0.00586482 0)
(0.427745 -0.00580097 0)
(0.477723 -0.00562866 0)
(0.52576 -0.00533375 0)
(0.570683 -0.00487572 0)
(0.610911 -0.00419737 0)
(0.644316 -0.00322504 0)
(0.668063 -0.00184647 0)
(0.678105 0.000587141 0)
(0.660018 0.00655048 0)
(0.587958 0.0187773 0)
(0.416096 0.0391233 0)
(0.103493 0.0457243 0)
(-0.131644 -0.0314467 0)
(-0.31485 0.0580795 0)
(-0.443356 -0.0422622 0)
(-0.00806651 0.00133369 0)
(0.0434523 -0.0444839 0)
(0.119923 -0.0413927 0)
(0.181197 -0.031661 0)
(0.231426 -0.028582 0)
(0.280554 -0.0292291 0)
(0.33144 -0.0302189 0)
(0.38343 -0.0305399 0)
(0.435381 -0.0302263 0)
(0.486374 -0.0293796 0)
(0.535508 -0.0279341 0)
(0.581648 -0.0256953 0)
(0.623262 -0.0223879 0)
(0.658301 -0.0176622 0)
(0.684094 -0.0110348 0)
(0.697186 -0.00178273 0)
(0.693148 0.0112903 0)
(0.669963 0.0336763 0)
(0.640709 0.0820986 0)
(0.605274 0.170532 0)
(0.33402 0.180111 0)
(-0.194397 0.196633 0)
(-0.230963 -0.197608 0)
(-0.00754592 0.00121074 0)
(0.044525 -0.0801223 0)
(0.119876 -0.0741608 0)
(0.17987 -0.0569838 0)
(0.230082 -0.0517766 0)
(0.279789 -0.0529888 0)
(0.33117 -0.0546989 0)
(0.38346 -0.0552281 0)
(0.435648 -0.0546679 0)
(0.486941 -0.0531835 0)
(0.536501 -0.0506422 0)
(0.583233 -0.0466909 0)
(0.625641 -0.04084 0)
(0.661726 -0.0324771 0)
(0.68892 -0.0208049 0)
(0.70399 -0.00467475 0)
(0.703066 0.0179489 0)
(0.682265 0.0512006 0)
(0.640049 0.102027 0)
(0.594574 0.181955 0)
(0.595825 0.30414 0)
(0.41527 0.345608 0)
(0.191372 -0.145574 0)
(-0.00683509 0.000168923 0)
(0.0460439 -0.115591 0)
(0.119706 -0.106018 0)
(0.177956 -0.081977 0)
(0.228266 -0.075216 0)
(0.278848 -0.0770805 0)
(0.330957 -0.0793993 0)
(0.383723 -0.0800656 0)
(0.436336 -0.0792706 0)
(0.488169 -0.0772126 0)
(0.538475 -0.0736665 0)
(0.586212 -0.0681139 0)
(0.629942 -0.0598548 0)
(0.667743 -0.0480276 0)
(0.697168 -0.0315551 0)
(0.715223 -0.00900453 0)
(0.718576 0.0217742 0)
(0.70435 0.0642645 0)
(0.672383 0.123222 0)
(0.627138 0.200328 0)
(0.595018 0.296237 0)
(0.639788 0.381965 0)
(0.460327 0.0481545 0)
(-0.00591885 -0.00214076 0)
(0.0479926 -0.150769 0)
(0.119304 -0.136667 0)
(0.17555 -0.106624 0)
(0.226155 -0.099035 0)
(0.277816 -0.101621 0)
(0.330748 -0.104399 0)
(0.384051 -0.105127 0)
(0.437184 -0.104128 0)
(0.489708 -0.101589 0)
(0.540974 -0.0971657 0)
(0.590016 -0.0901699 0)
(0.635475 -0.0796973 0)
(0.675532 -0.0646512 0)
(0.707876 -0.0437056 0)
(0.729739 -0.0152261 0)
(0.738199 0.0229237 0)
(0.730864 0.073601 0)
(0.707205 0.139792 0)
(0.670135 0.221658 0)
(0.621129 0.306032 0)
(0.592962 0.370957 0)
(0.458832 0.258217 0)
(-0.00474471 -0.00602329 0)
(0.0502086 -0.185433 0)
(0.118585 -0.165888 0)
(0.172774 -0.130963 0)
(0.223864 -0.123321 0)
(0.276661 -0.126638 0)
(0.330386 -0.129699 0)
(0.384232 -0.130429 0)
(0.437956 -0.129285 0)
(0.491306 -0.126389 0)
(0.543733 -0.121251 0)
(0.59436 -0.113015 0)
(0.641929 -0.100578 0)
(0.684732 -0.0826179 0)
(0.720584 -0.0575768 0)
(0.746878 -0.0236649 0)
(0.760916 0.0211779 0)
(0.760475 0.0792837 0)
(0.744581 0.152648 0)
(0.713341 0.240616 0)
(0.664358 0.33455 0)
(0.571975 0.405596 0)
(0.392902 0.435508 0)
(-0.00343996 -0.0117628 0)
(0.0525739 -0.219341 0)
(0.117568 -0.193556 0)
(0.16986 -0.155091 0)
(0.221615 -0.148119 0)
(0.275492 -0.152107 0)
(0.329914 -0.155285 0)
(0.384291 -0.155995 0)
(0.438682 -0.154798 0)
(0.49299 -0.151692 0)
(0.546764 -0.146032 0)
(0.599235 -0.136797 0)
(0.649266 -0.122691 0)
(0.695267 -0.102164 0)
(0.735165 -0.0734337 0)
(0.766462 -0.0345725 0)
(0.786562 0.0163989 0)
(0.793225 0.0814311 0)
(0.784916 0.162045 0)
(0.760085 0.258106 0)
(0.712123 0.36589 0)
(0.610871 0.473801 0)
(0.382651 0.597593 0)
(-0.00192063 -0.0193609 0)
(0.0550074 -0.252285 0)
(0.116286 -0.219685 0)
(0.167015 -0.179131 0)
(0.219575 -0.173421 0)
(0.274377 -0.177952 0)
(0.329352 -0.181114 0)
(0.384244 -0.181833 0)
(0.439368 -0.180708 0)
(0.494748 -0.17757 0)
(0.550037 -0.171617 0)
(0.604595 -0.161675 0)
(0.65743 -0.146257 0)
(0.707076 -0.123579 0)
(0.751543 -0.0916186 0)
(0.788356 -0.0482945 0)
(0.814869 0.00833035 0)
(0.828778 0.0799344 0)
(0.828401 0.167829 0)
(0.81152 0.272826 0)
(0.770909 0.396105 0)
(0.682708 0.545539 0)
(0.464362 0.758605 0)
(0.00352058 -0.00726953 0)
(0.0304357 -0.00212894 0)
(0.0508384 -0.00119969 0)
(0.0647517 -0.000630689 0)
(0.0753251 -0.000551365 0)
(0.0852061 -0.000624052 0)
(0.0947109 -0.000614792 0)
(0.103232 -0.000552203 0)
(0.110019 -0.000421336 0)
(0.114253 -0.000200417 0)
(0.115225 0.000101928 0)
(0.112532 0.000371476 0)
(0.106406 0.000646935 0)
(0.0970197 0.000907442 0)
(0.0846544 0.00114343 0)
(0.0697263 0.00134098 0)
(0.0526982 0.00150237 0)
(0.0341285 0.00161626 0)
(0.0145956 0.00166527 0)
(0.00444956 -0.0160536 0)
(0.0316066 -0.0139814 0)
(0.0595807 -0.0114292 0)
(0.0808476 -0.00844688 0)
(0.097952 -0.00718717 0)
(0.113462 -0.00672686 0)
(0.127923 -0.00621086 0)
(0.140688 -0.00524094 0)
(0.15065 -0.0037461 0)
(0.156875 -0.00185174 0)
(0.158699 0.000303797 0)
(0.155769 0.00259106 0)
(0.147901 0.0048388 0)
(0.135278 0.00694257 0)
(0.118322 0.00880868 0)
(0.0976263 0.0103755 0)
(0.0738853 0.0115996 0)
(0.0478899 0.012454 0)
(0.0204659 0.0129139 0)
(0.0044519 -0.0254182 0)
(0.0313171 -0.026693 0)
(0.06149 -0.0219428 0)
(0.0820887 -0.0160587 0)
(0.0984451 -0.0139207 0)
(0.113936 -0.0131363 0)
(0.128645 -0.0121041 0)
(0.141671 -0.0101725 0)
(0.151869 -0.00727751 0)
(0.158272 -0.00362065 0)
(0.160154 0.000539929 0)
(0.157118 0.00492529 0)
(0.149094 0.00926182 0)
(0.136287 0.0133118 0)
(0.119138 0.0169058 0)
(0.0982508 0.0199209 0)
(0.074331 0.022272 0)
(0.0481653 0.0239176 0)
(0.0205864 0.0248262 0)
(0.00344909 -0.0332721 0)
(0.0273696 -0.0403516 0)
(0.064295 -0.0330957 0)
(0.0837584 -0.0231603 0)
(0.0987269 -0.0204699 0)
(0.114149 -0.0196248 0)
(0.129263 -0.0181512 0)
(0.14279 -0.0152687 0)
(0.153444 -0.0109457 0)
(0.160181 -0.00547191 0)
(0.16225 0.000744658 0)
(0.15926 0.00727954 0)
(0.151162 0.0137336 0)
(0.138178 0.0197534 0)
(0.120778 0.0250855 0)
(0.0995873 0.0295535 0)
(0.0753332 0.033038 0)
(0.0488113 0.0354725 0)
(0.0208771 0.0368163 0)
(-0.00118328 -0.0356837 0)
(0.0211234 -0.0564965 0)
(0.0685516 -0.0457222 0)
(0.0859899 -0.0291174 0)
(0.0988347 -0.0267039 0)
(0.114327 -0.0262766 0)
(0.130129 -0.0244495 0)
(0.144392 -0.0206275 0)
(0.155702 -0.0148225 0)
(0.162922 -0.00746197 0)
(0.165267 0.000884902 0)
(0.162354 0.00964304 0)
(0.154148 0.0182705 0)
(0.140913 0.0263073 0)
(0.12315 0.0334134 0)
(0.101522 0.0393548 0)
(0.0767815 0.0439852 0)
(0.0497426 0.0472186 0)
(0.021261 0.0489951 0)
(-0.00502007 -0.0369746 0)
(0.0433313 -0.0800782 0)
(0.0733553 -0.0571374 0)
(0.0859521 -0.0339575 0)
(0.0984716 -0.0326716 0)
(0.114441 -0.0332059 0)
(0.131219 -0.0311366 0)
(0.146491 -0.0263375 0)
(0.158671 -0.0189864 0)
(0.166528 -0.00963837 0)
(0.169233 0.000939653 0)
(0.166405 0.01202 0)
(0.158043 0.0229028 0)
(0.144465 0.0330171 0)
(0.126221 0.0419381 0)
(0.104017 0.0493838 0)
(0.0786448 0.0551786 0)
(0.0509407 0.0592214 0)
(0.021782 0.0614548 0)
(0.00283141 -0.0524943 0)
(0.0711858 -0.0976104 0)
(0.0731481 -0.0611667 0)
(0.0820803 -0.0388387 0)
(0.0969833 -0.0390819 0)
(0.114362 -0.0405577 0)
(0.132479 -0.0383287 0)
(0.149088 -0.0325157 0)
(0.16239 -0.023522 0)
(0.171051 -0.0120643 0)
(0.174196 0.000893289 0)
(0.171456 0.01442 0)
(0.162881 0.0276603 0)
(0.148859 0.039929 0)
(0.130006 0.0507193 0)
(0.107085 0.0597029 0)
(0.08093 0.066681 0)
(0.0524062 0.0715411 0)
(0.022406 0.0742095 0)
(0.194867 -0.161673 0)
(0.0872849 -0.107492 0)
(0.0728381 -0.0620011 0)
(0.0786196 -0.0442058 0)
(0.0948479 -0.0464741 0)
(0.114069 -0.0486287 0)
(0.133993 -0.0462144 0)
(0.152302 -0.0393104 0)
(0.166964 -0.0285179 0)
(0.176572 -0.0147688 0)
(0.180215 0.00072891 0)
(0.177553 0.0168603 0)
(0.168699 0.0325791 0)
(0.154123 0.0470941 0)
(0.134524 0.059815 0)
(0.110737 0.0703752 0)
(0.0836438 0.0785585 0)
(0.0541448 0.0842506 0)
(0.0231435 0.0873881 0)
(0.00098587 -0.0389379 0)
(0.0579185 -0.292835 0)
(0.114517 -0.251157 0)
(0.163886 -0.210093 0)
(0.21743 -0.206532 0)
(0.273028 -0.211504 0)
(0.328485 -0.214547 0)
(0.384018 -0.215393 0)
(0.440165 -0.214564 0)
(0.497063 -0.211653 0)
(0.554527 -0.205675 0)
(0.612128 -0.195276 0)
(0.669094 -0.178713 0)
(0.724147 -0.153868 0)
(0.775406 -0.11836 0)
(0.820319 -0.0698328 0)
(0.855959 -0.00636259 0)
(0.879676 0.0733231 0)
(0.889681 0.170074 0)
(0.884633 0.285722 0)
(0.861627 0.42609 0)
(0.814981 0.612125 0)
(0.774472 0.912521 0)
(0.00452614 -0.0704154 0)
(0.0622548 -0.355423 0)
(0.111647 -0.299169 0)
(0.159932 -0.262014 0)
(0.214699 -0.262482 0)
(0.270761 -0.267645 0)
(0.326622 -0.270614 0)
(0.383157 -0.272175 0)
(0.441054 -0.272475 0)
(0.500611 -0.270764 0)
(0.561966 -0.265858 0)
(0.625143 -0.256152 0)
(0.689935 -0.239483 0)
(0.755688 -0.213129 0)
(0.820725 -0.173824 0)
(0.88175 -0.118308 0)
(0.934594 -0.0446109 0)
(0.975919 0.0473501 0)
(1.00442 0.157499 0)
(1.02118 0.286851 0)
(1.0312 0.438859 0)
(1.05024 0.623256 0)
(1.11019 0.84675 0)
(0.00819582 -0.111278 0)
(0.0657114 -0.411244 0)
(0.108963 -0.343642 0)
(0.157329 -0.314902 0)
(0.21232 -0.318689 0)
(0.267808 -0.323696 0)
(0.323602 -0.327202 0)
(0.380837 -0.330237 0)
(0.44019 -0.332496 0)
(0.50225 -0.33311 0)
(0.567815 -0.330942 0)
(0.63791 -0.324404 0)
(0.713235 -0.311105 0)
(0.792121 -0.287081 0)
(0.870924 -0.247158 0)
(0.947623 -0.186813 0)
(1.01963 -0.103958 0)
(1.08229 0.0023849 0)
(1.13065 0.129298 0)
(1.16614 0.269492 0)
(1.19428 0.419203 0)
(1.23133 0.577865 0)
(1.29756 0.743299 0)
(0.0118159 -0.160839 0)
(0.0678856 -0.460158 0)
(0.106612 -0.386519 0)
(0.155353 -0.368154 0)
(0.209383 -0.373944 0)
(0.263704 -0.379075 0)
(0.319249 -0.383947 0)
(0.377203 -0.389259 0)
(0.438487 -0.394595 0)
(0.50404 -0.39937 0)
(0.574041 -0.402552 0)
(0.646043 -0.401615 0)
(0.714592 -0.390639 0)
(0.780223 -0.363383 0)
(0.865559 -0.322441 0)
(0.977077 -0.263295 0)
(1.08098 -0.169384 0)
(1.15698 -0.0523367 0)
(1.23222 0.0867564 0)
(1.30031 0.248366 0)
(1.3513 0.403674 0)
(1.40267 0.543197 0)
(1.45458 0.67211 0)
(0.0153147 -0.218029 0)
(0.0688244 -0.502543 0)
(0.104776 -0.429153 0)
(0.153784 -0.42086 0)
(0.206431 -0.427762 0)
(0.259897 -0.433971 0)
(0.315332 -0.441301 0)
(0.372776 -0.449829 0)
(0.430433 -0.458453 0)
(0.483656 -0.464623 0)
(0.526399 -0.463541 0)
(0.564296 -0.452566 0)
(0.643083 -0.446786 0)
(0.840799 -0.488439 0)
(1.15639 -0.544324 0)
(1.46676 -0.510807 0)
(1.85808 -0.403553 0)
(2.35027 -0.14169 0)
(2.14564 0.163672 0)
(1.65793 0.249934 0)
(1.50374 0.365926 0)
(1.4835 0.463649 0)
(1.5284 0.596856 0)
(0.0188668 -0.280124 0)
(0.066464 -0.5393 0)
(0.101615 -0.472396 0)
(0.149157 -0.472221 0)
(0.196777 -0.479465 0)
(0.242303 -0.486237 0)
(0.283502 -0.49304 0)
(0.317011 -0.497515 0)
(0.341942 -0.496033 0)
(0.374939 -0.491247 0)
(0.475652 -0.508501 0)
(0.76136 -0.610997 0)
(1.29627 -0.833727 0)
(1.86514 -0.998337 0)
(1.63826 -0.669784 0)
(1.37832 -0.519849 0)
(1.57196 -0.75139 0)
(1.75685 -0.535387 0)
(1.97351 0.220634 0)
(2.12266 0.61415 0)
(2.02185 0.630037 0)
(1.83426 0.668128 0)
(1.63521 0.599687 0)
(0.0188302 -0.347657 0)
(0.052438 -0.570501 0)
(0.0810811 -0.513393 0)
(0.115303 -0.514111 0)
(0.145747 -0.516633 0)
(0.175628 -0.517046 0)
(0.215053 -0.517607 0)
(0.295609 -0.528274 0)
(0.481717 -0.577538 0)
(0.877885 -0.719954 0)
(1.55731 -1.0222 0)
(1.9686 -1.2469 0)
(1.69243 -1.00381 0)
(1.19724 -0.47783 0)
(0.823164 -0.375795 0)
(1.10427 -0.81367 0)
(1.10781 -0.734581 0)
(0.806779 -0.420569 0)
(0.804335 0.0247482 0)
(1.03859 0.383758 0)
(1.2901 0.556065 0)
(1.46214 0.651252 0)
(1.59943 0.706777 0)
(0.0535033 -0.4663 0)
(0.0845393 -0.567626 0)
(0.10276 -0.545118 0)
(0.174489 -0.552071 0)
(0.286277 -0.571313 0)
(0.468349 -0.615096 0)
(0.77708 -0.709177 0)
(1.29416 -0.91218 0)
(1.61631 -1.16238 0)
(1.54366 -1.1103 0)
(1.42606 -1.0095 0)
(1.26611 -0.865464 0)
(1.10511 -0.64076 0)
(0.903361 -0.0988946 0)
(0.957474 -0.596702 0)
(0.93519 -0.824094 0)
(0.675791 -0.397434 0)
(0.462018 -0.228267 0)
(0.42087 -0.0739225 0)
(0.518083 0.148854 0)
(0.696332 0.321629 0)
(0.894838 0.433967 0)
(1.09397 0.498342 0)
(-0.00226724 -0.731217 0)
(0.304393 -0.589911 0)
(0.400855 -0.668276 0)
(0.560294 -0.737874 0)
(0.679915 -0.846444 0)
(0.760513 -0.842928 0)
(0.862177 -0.915678 0)
(0.940803 -0.989529 0)
(1.03855 -1.05854 0)
(1.17762 -1.10471 0)
(1.33229 -1.06535 0)
(1.42521 -0.869424 0)
(1.39395 -0.525816 0)
(1.30789 -0.109693 0)
(1.16294 -0.42751 0)
(0.831764 -0.595699 0)
(0.666284 -0.25032 0)
(0.637498 -0.179565 0)
(0.641733 -0.0927385 0)
(0.706316 0.0466136 0)
(0.822194 0.167855 0)
(0.964905 0.263826 0)
(1.11391 0.335987 0)
(-0.0261948 -0.653746 0)
(0.0923824 -0.821866 0)
(0.226638 -0.802837 0)
(0.332715 -0.842553 0)
(0.435022 -0.902615 0)
(0.547942 -0.969721 0)
(0.681123 -1.05567 0)
(0.824426 -1.14986 0)
(1.00192 -1.24816 0)
(1.2164 -1.29745 0)
(1.34561 -1.20386 0)
(1.43035 -0.928584 0)
(1.46453 -0.444359 0)
(1.3288 -0.0277223 0)
(1.12322 -0.104984 0)
(0.853261 -0.324516 0)
(0.720407 -0.195808 0)
(0.72143 -0.1792 0)
(0.748006 -0.130944 0)
(0.817503 -0.044655 0)
(0.924872 0.0426356 0)
(1.05408 0.123172 0)
(1.19113 0.195731 0)
(0.0223043 -0.698391 0)
(0.0905526 -0.929928 0)
(0.174179 -0.902374 0)
(0.264599 -0.942052 0)
(0.35404 -1.00238 0)
(0.450028 -1.0831 0)
(0.560918 -1.18434 0)
(0.700416 -1.31384 0)
(0.933673 -1.48655 0)
(1.05267 -1.4117 0)
(1.00575 -1.23236 0)
(1.0398 -1.00216 0)
(1.07288 -0.436035 0)
(0.988157 0.175228 0)
(0.826246 0.075672 0)
(0.715441 -0.162017 0)
(0.700416 -0.184044 0)
(0.74538 -0.208479 0)
(0.802551 -0.188807 0)
(0.888461 -0.139054 0)
(0.999966 -0.0773402 0)
(1.12843 -0.0102489 0)
(1.26455 0.0599973 0)
(0.0305488 -0.783753 0)
(0.077418 -0.98908 0)
(0.137786 -0.980528 0)
(0.204655 -1.02063 0)
(0.271635 -1.08341 0)
(0.341777 -1.17397 0)
(0.419216 -1.29247 0)
(0.538512 -1.50735 0)
(0.68557 -1.63806 0)
(0.583352 -1.30728 0)
(0.525999 -1.22029 0)
(0.462642 -1.0028 0)
(0.465281 -0.390063 0)
(0.463841 0.235119 0)
(0.520529 0.113178 0)
(0.580628 -0.158614 0)
(0.657717 -0.246139 0)
(0.738996 -0.274512 0)
(0.828152 -0.273109 0)
(0.934291 -0.246477 0)
(1.05774 -0.203151 0)
(1.19494 -0.147734 0)
(1.34011 -0.0813374 0)
(0.0268376 -0.867446 0)
(0.0625628 -1.02822 0)
(0.106921 -1.0362 0)
(0.151747 -1.07561 0)
(0.192704 -1.13673 0)
(0.226659 -1.22602 0)
(0.250075 -1.34964 0)
(0.274093 -1.61242 0)
(0.141259 -1.53148 0)
(0.0207261 -1.18616 0)
(-0.0750292 -1.13615 0)
(-0.221659 -0.919417 0)
(-0.223427 -0.383277 0)
(-0.0300709 0.0762739 0)
(0.299048 -0.0645267 0)
(0.496161 -0.2625 0)
(0.609014 -0.33948 0)
(0.721138 -0.373848 0)
(0.836799 -0.382756 0)
(0.962671 -0.370768 0)
(1.10193 -0.341867 0)
(1.254 -0.297616 0)
(1.41561 -0.23693 0)
(0.0204723 -0.934849 0)
(0.046859 -1.05787 0)
(0.0778387 -1.07315 0)
(0.104246 -1.10806 0)
(0.121811 -1.15984 0)
(0.122492 -1.23202 0)
(0.0935933 -1.32535 0)
(-0.000506418 -1.50221 0)
(-0.219653 -1.35297 0)
(-0.315105 -1.08841 0)
(-0.420668 -1.01283 0)
(-0.466662 -0.84044 0)
(-0.386812 -0.550781 0)
(-0.109598 -0.332586 0)
(0.211924 -0.353818 0)
(0.416791 -0.41798 0)
(0.565527 -0.468167 0)
(0.700096 -0.498768 0)
(0.834774 -0.513191 0)
(0.977774 -0.512528 0)
(1.13367 -0.497137 0)
(1.30411 -0.46554 0)
(1.48824 -0.414387 0)
(0.0138877 -0.983348 0)
(0.0325511 -1.07978 0)
(0.0523871 -1.09541 0)
(0.0654649 -1.12281 0)
(0.0677808 -1.16043 0)
(0.0512227 -1.20729 0)
(0.00449539 -1.25144 0)
(-0.114687 -1.31329 0)
(-0.304767 -1.23316 0)
(-0.343517 -1.00473 0)
(-0.358154 -1.00208 0)
(-0.305409 -0.896838 0)
(-0.185297 -0.738722 0)
(0.0100736 -0.613759 0)
(0.203556 -0.572384 0)
(0.380991 -0.587443 0)
(0.533701 -0.613992 0)
(0.677825 -0.639491 0)
(0.824049 -0.65898 0)
(0.979948 -0.669888 0)
(1.15109 -0.669934 0)
(1.34126 -0.655527 0)
(1.55308 -0.621418 0)
(0.00843392 -1.01482 0)
(0.0211077 -1.09469 0)
(0.032388 -1.10729 0)
(0.0372377 -1.12666 0)
(0.0326805 -1.15083 0)
(0.0136587 -1.17639 0)
(-0.0236847 -1.19032 0)
(-0.0844873 -1.18213 0)
(-0.176029 -1.12043 0)
(-0.205477 -1.02407 0)
(-0.127971 -1.03655 0)
(-0.119791 -0.96553 0)
(-0.047741 -0.86042 0)
(0.0727343 -0.774702 0)
(0.219067 -0.741751 0)
(0.365699 -0.742123 0)
(0.508939 -0.760488 0)
(0.652734 -0.78644 0)
(0.803261 -0.813916 0)
(0.966899 -0.839215 0)
(1.14986 -0.859082 0)
(1.35865 -0.869623 0)
(1.5996 -0.863485 0)
(0.00478026 -1.0333 0)
(0.0126878 -1.10369 0)
(0.0180469 -1.11256 0)
(0.0184577 -1.12522 0)
(0.0121036 -1.13955 0)
(-0.00307617 -1.1519 0)
(-0.0274606 -1.15523 0)
(-0.0527132 -1.13769 0)
(-0.0671449 -1.09791 0)
(-0.0502931 -1.07256 0)
(-0.0418253 -1.04299 0)
(-0.0225821 -0.99491 0)
(0.0279242 -0.939912 0)
(0.117112 -0.89328 0)
(0.22999 -0.874421 0)
(0.353204 -0.878388 0)
(0.483163 -0.899684 0)
(0.620564 -0.932273 0)
(0.769305 -0.971882 0)
(0.934833 -1.01547 0)
(1.12406 -1.06078 0)
(1.34582 -1.10534 0)
(1.60946 -1.13967 0)
(0.00264158 -1.04322 0)
(0.0067166 -1.10816 0)
(0.00832763 -1.11389 0)
(0.00659717 -1.12177 0)
(0.00060877 -1.13 0)
(-0.00999501 -1.13573 0)
(-0.0240811 -1.13503 0)
(-0.0373034 -1.12422 0)
(-0.0401011 -1.10253 0)
(-0.030246 -1.07974 0)
(-0.0131273 -1.05939 0)
(0.016162 -1.03333 0)
(0.0652892 -1.00512 0)
(0.138122 -0.985959 0)
(0.229399 -0.982863 0)
(0.334142 -0.997411 0)
(0.449823 -1.02784 0)
(0.577019 -1.07173 0)
(0.718675 -1.12691 0)
(0.879645 -1.19214 0)
(1.06707 -1.26746 0)
(1.2902 -1.35246 0)
(1.55875 -1.43764 0)
(0.00143684 -1.04789 0)
(0.0025585 -1.10943 0)
(0.00186057 -1.11298 0)
(-0.000855064 -1.11786 0)
(-0.00592932 -1.12277 0)
(-0.0130539 -1.1258 0)
(-0.0208096 -1.12487 0)
(-0.0261691 -1.11854 0)
(-0.0251452 -1.10748 0)
(-0.0149217 -1.09498 0)
(0.00442134 -1.08267 0)
(0.0345277 -1.07097 0)
(0.0790074 -1.06218 0)
(0.139605 -1.06142 0)
(0.215257 -1.07346 0)
(0.303994 -1.10045 0)
(0.404931 -1.1429 0)
(0.519013 -1.20057 0)
(0.648824 -1.27321 0)
(0.798751 -1.36166 0)
(0.974999 -1.46784 0)
(1.18404 -1.59196 0)
(1.43112 -1.72681 0)
(0.000701697 -1.04936 0)
(-0.000356287 -1.10855 0)
(-0.00254815 -1.11075 0)
(-0.0058105 -1.11398 0)
(-0.0101615 -1.11736 0)
(-0.0151306 -1.11971 0)
(-0.0195105 -1.11997 0)
(-0.021368 -1.11782 0)
(-0.0182418 -1.11377 0)
(-0.00815529 -1.10938 0)
(0.00991314 -1.10632 0)
(0.0371611 -1.10596 0)
(0.0753508 -1.11067 0)
(0.125579 -1.1239 0)
(0.187724 -1.1489 0)
(0.261466 -1.18811 0)
(0.346888 -1.24311 0)
(0.445241 -1.31513 0)
(0.559006 -1.40547 0)
(0.692137 -1.51659 0)
(0.849153 -1.65077 0)
(1.03304 -1.80575 0)
(1.24269 -1.97464 0)
(0.000210005 -1.04873 0)
(-0.00247633 -1.10612 0)
(-0.00576947 -1.10761 0)
(-0.00953007 -1.11011 0)
(-0.0136202 -1.11301 0)
(-0.0175735 -1.11564 0)
(-0.0204876 -1.11754 0)
(-0.0210577 -1.11879 0)
(-0.0177836 -1.12003 0)
(-0.00922068 -1.12234 0)
(0.0058393 -1.12705 0)
(0.0284044 -1.13577 0)
(0.0593451 -1.15065 0)
(0.099282 -1.17448 0)
(0.148488 -1.21011 0)
(0.20718 -1.26009 0)
(0.275903 -1.32669 0)
(0.356045 -1.41213 0)
(0.450022 -1.51912 0)
(0.561486 -1.651 0)
(0.694184 -1.8095 0)
(0.85023 -1.98824 0)
(1.02831 -2.17831 0)
(-0.000175809 -1.04656 0)
(-0.00413943 -1.1025 0)
(-0.00838147 -1.1037 0)
(-0.0127567 -1.10597 0)
(-0.0170771 -1.10895 0)
(-0.0209309 -1.11227 0)
(-0.0236667 -1.11579 0)
(-0.0244203 -1.11981 0)
(-0.0222192 -1.12506 0)
(-0.0160787 -1.1325 0)
(-0.00509551 -1.14334 0)
(0.0115077 -1.15904 0)
(0.0343265 -1.18151 0)
(0.0636774 -1.21326 0)
(0.0997647 -1.25703 0)
(0.142848 -1.31558 0)
(0.19349 -1.39172 0)
(0.253008 -1.48853 0)
(0.323628 -1.60984 0)
(0.40877 -1.76015 0)
(0.512774 -1.94115 0)
(0.641036 -2.14511 0)
(0.800825 -2.36464 0)
(-0.00050278 -1.04306 0)
(-0.00557015 -1.09785 0)
(-0.0107447 -1.09895 0)
(-0.0158833 -1.10123 0)
(-0.0208333 -1.10452 0)
(-0.0252759 -1.10861 0)
(-0.0287425 -1.11353 0)
(-0.0306649 -1.11972 0)
(-0.0304494 -1.1279 0)
(-0.0275006 -1.13905 0)
(-0.0212354 -1.15428 0)
(-0.0111741 -1.17497 0)
(0.00300626 -1.2028 0)
(0.0214867 -1.23994 0)
(0.044143 -1.28924 0)
(0.0709537 -1.35366 0)
(0.102284 -1.43634 0)
(0.138886 -1.5412 0)
(0.182412 -1.67328 0)
(0.236057 -1.83848 0)
(0.304344 -2.04047 0)
(0.396672 -2.27553 0)
(0.531206 -2.54783 0)
(-0.000804023 -1.03836 0)
(-0.00691122 -1.09219 0)
(-0.0130392 -1.09329 0)
(-0.0190753 -1.09568 0)
(-0.0249371 -1.09928 0)
(-0.0304238 -1.10401 0)
(-0.0352237 -1.11001 0)
(-0.0389771 -1.11773 0)
(-0.0413507 -1.12789 0)
(-0.0420693 -1.14143 0)
(-0.0408734 -1.15943 0)
(-0.037576 -1.18318 0)
(-0.0321423 -1.21419 0)
(-0.0246752 -1.25439 0)
(-0.0155658 -1.30644 0)
(-0.00529547 -1.37345 0)
(0.00585316 -1.45903 0)
(0.0177911 -1.56747 0)
(0.0309969 -1.7049 0)
(0.0473481 -1.87872 0)
(0.0700363 -2.09641 0)
(0.108371 -2.36082 0)
(0.183775 -2.69349 0)
(-0.00109748 -1.03258 0)
(-0.00819922 -1.08555 0)
(-0.0152965 -1.08669 0)
(-0.0223411 -1.08917 0)
(-0.0293101 -1.09296 0)
(-0.036107 -1.09808 0)
(-0.0425669 -1.10473 0)
(-0.0485136 -1.11336 0)
(-0.0538159 -1.12461 0)
(-0.0584271 -1.13936 0)
(-0.0623821 -1.15866 0)
(-0.0657825 -1.18366 0)
(-0.0688937 -1.21575 0)
(-0.0721486 -1.25664 0)
(-0.0762528 -1.30864 0)
(-0.0822603 -1.37489 0)
(-0.0912984 -1.45897 0)
(-0.104584 -1.56542 0)
(-0.123383 -1.70074 0)
(-0.148662 -1.87348 0)
(-0.180554 -2.09393 0)
(-0.216527 -2.37235 0)
(-0.240185 -2.74282 0)
(-0.00137903 -1.0258 0)
(-0.00941361 -1.07796 0)
(-0.0174723 -1.07909 0)
(-0.0255817 -1.08156 0)
(-0.0337708 -1.08537 0)
(-0.0420193 -1.09059 0)
(-0.0502804 -1.09745 0)
(-0.0585367 -1.10635 0)
(-0.0668368 -1.11788 0)
(-0.0753217 -1.1328 0)
(-0.0842543 -1.15206 0)
(-0.094015 -1.17671 0)
(-0.105131 -1.20795 0)
(-0.118377 -1.24726 0)
(-0.13481 -1.29654 0)
(-0.156001 -1.35857 0)
(-0.183982 -1.43671 0)
(-0.221242 -1.53512 0)
(-0.27107 -1.65977 0)
(-0.337909 -1.81885 0)
(-0.427382 -2.02282 0)
(-0.547276 -2.28472 0)
(-0.699212 -2.641 0)
(-0.00163338 -1.01808 0)
(-0.0105387 -1.06944 0)
(-0.0195203 -1.07048 0)
(-0.0286679 -1.0728 0)
(-0.0380759 -1.07642 0)
(-0.0477966 -1.08146 0)
(-0.0578737 -1.08811 0)
(-0.0684054 -1.09673 0)
(-0.0795807 -1.10779 0)
(-0.0917006 -1.12197 0)
(-0.105204 -1.14003 0)
(-0.120701 -1.16292 0)
(-0.138963 -1.19162 0)
(-0.161033 -1.22732 0)
(-0.188318 -1.2715 0)
(-0.222764 -1.32626 0)
(-0.267139 -1.39439 0)
(-0.325074 -1.47916 0)
(-0.401559 -1.58503 0)
(-0.50389 -1.71792 0)
(-0.642992 -1.88515 0)
(-0.835723 -2.09469 0)
(-1.10611 -2.36919 0)
(-0.00185839 -1.00951 0)
(-0.011568 -1.06005 0)
(-0.0214024 -1.06093 0)
(-0.0314968 -1.06295 0)
(-0.0420142 -1.06618 0)
(-0.0530865 -1.07072 0)
(-0.0648472 -1.07678 0)
(-0.0774841 -1.08462 0)
(-0.091279 -1.0946 0)
(-0.106642 -1.10726 0)
(-0.12414 -1.12321 0)
(-0.144531 -1.14317 0)
(-0.168796 -1.16795 0)
(-0.198164 -1.19841 0)
(-0.234285 -1.23554 0)
(-0.279362 -1.28068 0)
(-0.336542 -1.33569 0)
(-0.410113 -1.40264 0)
(-0.505968 -1.48386 0)
(-0.632749 -1.5819 0)
(-0.803543 -1.69879 0)
(-1.03831 -1.83299 0)
(-1.36994 -1.98319 0)
(-0.00205553 -1.00019 0)
(-0.0124654 -1.04987 0)
(-0.0230427 -1.05052 0)
(-0.0339574 -1.05214 0)
(-0.0454183 -1.05479 0)
(-0.0576253 -1.05859 0)
(-0.0707999 -1.0637 0)
(-0.0852142 -1.07031 0)
(-0.101219 -1.0787 0)
(-0.119292 -1.08923 0)
(-0.140074 -1.10235 0)
(-0.1644 -1.11854 0)
(-0.193354 -1.13838 0)
(-0.228283 -1.16242 0)
(-0.27092 -1.19117 0)
(-0.323565 -1.2252 0)
(-0.389381 -1.26531 0)
(-0.472703 -1.31229 0)
(-0.579343 -1.36638 0)
(-0.717455 -1.42673 0)
(-0.898913 -1.4905 0)
(-1.14003 -1.54839 0)
(-1.46513 -1.5817 0)
(-0.00222056 -0.990277 0)
(-0.0131758 -1.03905 0)
(-0.0243301 -1.03942 0)
(-0.0358909 -1.04054 0)
(-0.0480912 -1.04248 0)
(-0.0611773 -1.04534 0)
(-0.0754351 -1.04922 0)
(-0.0912021 -1.05425 0)
(-0.108886 -1.06062 0)
(-0.129011 -1.06856 0)
(-0.152252 -1.07833 0)
(-0.179467 -1.0902 0)
(-0.211739 -1.10448 0)
(-0.250429 -1.12144 0)
(-0.297223 -1.14114 0)
(-0.354291 -1.16347 0)
(-0.424546 -1.18827 0)
(-0.511862 -1.2152 0)
(-0.621191 -1.24292 0)
(-0.758976 -1.26815 0)
(-0.933728 -1.28499 0)
(-1.15549 -1.28132 0)
(-1.43483 -1.23357 0)
(-0.00234907 -0.979892 0)
(-0.0136644 -1.02777 0)
(-0.0251815 -1.02781 0)
(-0.0371522 -1.02838 0)
(-0.0498351 -1.02951 0)
(-0.0635094 -1.03126 0)
(-0.0784968 -1.03371 0)
(-0.0951692 -1.03692 0)
(-0.113968 -1.04099 0)
(-0.135439 -1.04603 0)
(-0.16026 -1.05212 0)
(-0.189267 -1.05937 0)
(-0.223486 -1.06783 0)
(-0.264184 -1.07748 0)
(-0.312916 -1.08809 0)
(-0.371542 -1.09898 0)
(-0.442494 -1.10921 0)
(-0.528938 -1.11764 0)
(-0.634572 -1.12205 0)
(-0.763693 -1.11794 0)
(-0.921212 -1.09843 0)
(-1.11139 -1.05239 0)
(-1.33487 -0.95948 0)
(-0.00243048 -0.969206 0)
(-0.0139053 -1.01625 0)
(-0.0255516 -1.01595 0)
(-0.0376716 -1.0159 0)
(-0.0505491 -1.01614 0)
(-0.0644875 -1.0167 0)
(-0.079823 -1.0176 0)
(-0.0969374 -1.01885 0)
(-0.116278 -1.02046 0)
(-0.138387 -1.02242 0)
(-0.163912 -1.02471 0)
(-0.193635 -1.02726 0)
(-0.228494 -1.02994 0)
(-0.269602 -1.03246 0)
(-0.318304 -1.03437 0)
(-0.376114 -1.03471 0)
(-0.444812 -1.03194 0)
(-0.526743 -1.02438 0)
(-0.624445 -1.00962 0)
(-0.740206 -0.983044 0)
(-0.876009 -0.937957 0)
(-1.03244 -0.866114 0)
(-1.2052 -0.753135 0)
(-0.00244809 -0.958465 0)
(-0.013849 -1.00472 0)
(-0.0253826 -1.00407 0)
(-0.0374004 -1.00339 0)
(-0.0501963 -1.00271 0)
(-0.0640765 -1.00202 0)
(-0.0793731 -1.00131 0)
(-0.0964603 -1.00054 0)
(-0.115773 -0.99965 0)
(-0.137823 -0.998533 0)
(-0.163213 -0.997055 0)
(-0.19265 -0.995024 0)
(-0.226962 -0.992158 0)
(-0.267093 -0.988016 0)
(-0.314131 -0.981952 0)
(-0.369262 -0.97294 0)
(-0.433649 -0.959179 0)
(-0.508739 -0.938555 0)
(-0.59615 -0.908871 0)
(-0.696778 -0.86622 0)
(-0.810514 -0.804654 0)
(-0.936081 -0.718653 0)
(-1.068 -0.599983 0)
(-0.00239791 -0.947974 0)
(-0.0134498 -0.993435 0)
(-0.0246149 -0.992422 0)
(-0.0362794 -0.991103 0)
(-0.0487235 -0.989487 0)
(-0.0622359 -0.987556 0)
(-0.0771287 -0.985259 0)
(-0.0937537 -0.982512 0)
(-0.112515 -0.979183 0)
(-0.13388 -0.975096 0)
(-0.158386 -0.970025 0)
(-0.186655 -0.963686 0)
(-0.219395 -0.955695 0)
(-0.257386 -0.945516 0)
(-0.301474 -0.932398 0)
(-0.352534 -0.915328 0)
(-0.411297 -0.892616 0)
(-0.478366 -0.861859 0)
(-0.554585 -0.82106 0)
(-0.640109 -0.767476 0)
(-0.733653 -0.696221 0)
(-0.833082 -0.603553 0)
(-0.933591 -0.486062 0)
(-0.00228138 -0.938012 0)
(-0.01271 -0.982669 0)
(-0.0232468 -0.981269 0)
(-0.034301 -0.979303 0)
(-0.0461139 -0.976775 0)
(-0.0589448 -0.973645 0)
(-0.0730816 -0.96983 0)
(-0.0888477 -0.965204 0)
(-0.106605 -0.959585 0)
(-0.126762 -0.952737 0)
(-0.149776 -0.944367 0)
(-0.176168 -0.934116 0)
(-0.20652 -0.921535 0)
(-0.241459 -0.906043 0)
(-0.28163 -0.886867 0)
(-0.327643 -0.863024 0)
(-0.379969 -0.833136 0)
(-0.438649 -0.794886 0)
(-0.503752 -0.74616 0)
(-0.575164 -0.685423 0)
(-0.651187 -0.609116 0)
(-0.729318 -0.514245 0)
(-0.806022 -0.400663 0)
(-0.00201333 -0.928906 0)
(-0.0116089 -0.972686 0)
(-0.0212955 -0.970847 0)
(-0.0315157 -0.968249 0)
(-0.0424445 -0.964865 0)
(-0.0542972 -0.960619 0)
(-0.0673356 -0.955393 0)
(-0.0818623 -0.949029 0)
(-0.0982035 -0.941311 0)
(-0.116706 -0.931967 0)
(-0.137741 -0.920661 0)
(-0.161719 -0.90698 0)
(-0.189092 -0.890427 0)
(-0.220337 -0.870404 0)
(-0.255932 -0.846162 0)
(-0.296288 -0.816784 0)
(-0.341695 -0.781159 0)
(-0.392026 -0.737488 0)
(-0.446683 -0.683461 0)
(-0.505346 -0.618166 0)
(-0.56655 -0.539708 0)
(-0.62763 -0.445211 0)
(-0.686225 -0.336094 0)
(-0.00138719 -0.921392 0)
(-0.00999022 -0.963681 0)
(-0.0186983 -0.961349 0)
(-0.0279091 -0.958156 0)
(-0.0377468 -0.954012 0)
(-0.0483797 -0.948785 0)
(-0.0600319 -0.942306 0)
(-0.0729821 -0.934378 0)
(-0.0875354 -0.924779 0)
(-0.103989 -0.913229 0)
(-0.122636 -0.899369 0)
(-0.14379 -0.882761 0)
(-0.167777 -0.86288 0)
(-0.194929 -0.839119 0)
(-0.225574 -0.810766 0)
(-0.259976 -0.776993 0)
(-0.298283 -0.736863 0)
(-0.340395 -0.689163 0)
(-0.385506 -0.631854 0)
(-0.432865 -0.563819 0)
(-0.481571 -0.484738 0)
(-0.529093 -0.392047 0)
(-0.573751 -0.287049 0)
(-0.000367258 -0.91654 0)
(-0.0077615 -0.955583 0)
(-0.0154727 -0.952836 0)
(-0.0235051 -0.949155 0)
(-0.0320278 -0.944375 0)
(-0.0412117 -0.938323 0)
(-0.0512513 -0.930786 0)
(-0.0623741 -0.92152 0)
(-0.0748405 -0.910295 0)
(-0.0889097 -0.896852 0)
(-0.104822 -0.880829 0)
(-0.122819 -0.861782 0)
(-0.143132 -0.83919 0)
(-0.165968 -0.812454 0)
(-0.191517 -0.780889 0)
(-0.219918 -0.743749 0)
(-0.251215 -0.700226 0)
(-0.285318 -0.649464 0)
(-0.321642 -0.59012 0)
(-0.359103 -0.520709 0)
(-0.397132 -0.441609 0)
(-0.433816 -0.351336 0)
(-0.467561 -0.249851 0)
(0.000803885 -0.915098 0)
(-0.00530834 -0.948528 0)
(-0.0119853 -0.945606 0)
(-0.0186886 -0.941647 0)
(-0.0257056 -0.93639 0)
(-0.0332211 -0.929656 0)
(-0.0414277 -0.921234 0)
(-0.0505065 -0.910872 0)
(-0.0606396 -0.898315 0)
(-0.0720338 -0.883307 0)
(-0.0848948 -0.865498 0)
(-0.099416 -0.844454 0)
(-0.115771 -0.819676 0)
(-0.134099 -0.790603 0)
(-0.154492 -0.756593 0)
(-0.176978 -0.71696 0)
(-0.201519 -0.670995 0)
(-0.227989 -0.618003 0)
(-0.256065 -0.557235 0)
(-0.284793 -0.487359 0)
(-0.313536 -0.408418 0)
(-0.341333 -0.32047 0)
(-0.366362 -0.221974 0)
(0.00231894 -0.915821 0)
(-0.00329761 -0.941947 0)
(-0.00856819 -0.939227 0)
(-0.0137816 -0.935247 0)
(-0.0191804 -0.929715 0)
(-0.0248964 -0.922491 0)
(-0.0311039 -0.913399 0)
(-0.0379547 -0.902211 0)
(-0.0455789 -0.888673 0)
(-0.0541177 -0.872502 0)
(-0.063726 -0.853356 0)
(-0.0745462 -0.830816 0)
(-0.086702 -0.804408 0)
(-0.100289 -0.773608 0)
(-0.115368 -0.737833 0)
(-0.131932 -0.696463 0)
(-0.149902 -0.648859 0)