# vtk DataFile Version 2.0
gauge_2
ASCII
DATASET POLYDATA
POINTS 85 double
0.2 0.0329993 0.005
0.2 0.0359992 0.005
0.2 0.0389992 0.005
0.2 0.0419991 0.005
0.2 0.044999 0.005
0.2 0.047999 0.005
0.2 0.0543799 0.005
0.2 0.0607609 0.005
0.2 0.0671419 0.005
0.2 0.0735228 0.005
0.2 0.0799038 0.005
0.2 0.0862847 0.005
0.2 0.0926657 0.005
0.2 0.0990467 0.005
0.2 0.105428 0.005
0.2 0.111809 0.005
0.2 0.11819 0.005
0.2 0.124571 0.005
0.2 0.130952 0.005
0.2 0.137332 0.005
0.2 0.143713 0.005
0.2 0.150094 0.005
0.2 0.156475 0.005
0.2 0.162856 0.005
0.2 0.169237 0.005
0.2 0.175618 0.005
0.2 0.181999 0.005
0.2 0.18838 0.005
0.2 0.194761 0.005
0.2 0.201142 0.005
0.2 0.207523 0.005
0.2 0.213904 0.005
0.2 0.220285 0.005
0.2 0.226666 0.005
0.2 0.233047 0.005
0.2 0.239428 0.005
0.2 0.245809 0.005
0.2 0.25219 0.005
0.2 0.258571 0.005
0.2 0.264952 0.005
0.2 0.271333 0.005
0.2 0.277714 0.005
0.2 0.284095 0.005
0.2 0.290476 0.005
0.2 0.296857 0.005
0.2 0.303238 0.005
0.2 0.309619 0.005
0.2 0.315999 0.005
0.2 0.32238 0.005
0.2 0.328761 0.005
0.2 0.335142 0.005
0.2 0.341523 0.005
0.2 0.347904 0.005
0.2 0.354285 0.005
0.2 0.360666 0.005
0.2 0.367047 0.005
0.2 0.373428 0.005
0.2 0.379809 0.005
0.2 0.38619 0.005
0.2 0.392571 0.005
0.2 0.398952 0.005
0.2 0.405333 0.005
0.2 0.411714 0.005
0.2 0.418095 0.005
0.2 0.424476 0.005
0.2 0.430857 0.005
0.2 0.437238 0.005
0.2 0.443619 0.005
0.2 0.45 0.005
0.2 0.456381 0.005
0.2 0.462762 0.005
0.2 0.469143 0.005
0.2 0.475524 0.005
0.2 0.481905 0.005
0.2 0.488286 0.005
0.2 0.494666 0.005
0.2 0.501047 0.005
0.2 0.507428 0.005
0.2 0.513809 0.005
0.2 0.52019 0.005
0.2 0.526571 0.005
0.2 0.532952 0.005
0.2 0.539333 0.005
0.2 0.545714 0.005
0.2 0.552095 0.005
POINT_DATA 85
 FIELD attributes 1
alpha.water 1 85 float
1 1 1 1 1 1 1 0.999993 0.999784 0.980316 0.792116 0.390172 0.0899675 0.0119079 0.000572297 5.98604e-05 6.13366e-06 5.47782e-07 4.50082e-08 4.23617e-09 3.10249e-10 2.55801e-10 2.46359e-10 2.38815e-10 2.25827e-10 1.9415e-10 1.46266e-10 9.75477e-11 5.93061e-11 3.40678e-11 1.90157e-11 1.02615e-11 5.2222e-12 2.4685e-12 1.09598e-12 4.61893e-13 1.84624e-13 6.88436e-14 2.38106e-14 8.07127e-15 2.88699e-15 9.84366e-16 2.44178e-16 3.40358e-17 2.26346e-18 5.0385e-20 2.28803e-23 2.66634e-25 1.32924e-27 3.53578e-29 6.89323e-31 1.05087e-32 9.36614e-35 9.77913e-37 -8.84177e-33 -1.35618e-32 -5.56423e-33 -8.97695e-34 -5.41349e-35 -6.29782e-37 -1.89769e-39 -9.9651e-43 -7.78156e-46 -1.38679e-47 -1.77246e-49 -1.1295e-51 -6.08133e-54 -9.04118e-57 -2.99436e-60 -2.18282e-64 -1.15431e-67 -8.40078e-72 -2.25802e-78 -6.70711e-81 -6.52179e-83 -4.1918e-85 -1.72144e-87 -4.16676e-90 -8.91898e-93 -1.3387e-95 -1.54481e-98 -2.19831e-101 -3.69201e-104 -4.38946e-107 -3.25866e-110
