# vtk DataFile Version 2.0
gauge_2
ASCII
DATASET POLYDATA
POINTS 85 double
0.2 0.0329993 0.005
0.2 0.0359992 0.005
0.2 0.0389992 0.005
0.2 0.0419991 0.005
0.2 0.044999 0.005
0.2 0.047999 0.005
0.2 0.0543799 0.005
0.2 0.0607609 0.005
0.2 0.0671419 0.005
0.2 0.0735228 0.005
0.2 0.0799038 0.005
0.2 0.0862847 0.005
0.2 0.0926657 0.005
0.2 0.0990467 0.005
0.2 0.105428 0.005
0.2 0.111809 0.005
0.2 0.11819 0.005
0.2 0.124571 0.005
0.2 0.130952 0.005
0.2 0.137332 0.005
0.2 0.143713 0.005
0.2 0.150094 0.005
0.2 0.156475 0.005
0.2 0.162856 0.005
0.2 0.169237 0.005
0.2 0.175618 0.005
0.2 0.181999 0.005
0.2 0.18838 0.005
0.2 0.194761 0.005
0.2 0.201142 0.005
0.2 0.207523 0.005
0.2 0.213904 0.005
0.2 0.220285 0.005
0.2 0.226666 0.005
0.2 0.233047 0.005
0.2 0.239428 0.005
0.2 0.245809 0.005
0.2 0.25219 0.005
0.2 0.258571 0.005
0.2 0.264952 0.005
0.2 0.271333 0.005
0.2 0.277714 0.005
0.2 0.284095 0.005
0.2 0.290476 0.005
0.2 0.296857 0.005
0.2 0.303238 0.005
0.2 0.309619 0.005
0.2 0.315999 0.005
0.2 0.32238 0.005
0.2 0.328761 0.005
0.2 0.335142 0.005
0.2 0.341523 0.005
0.2 0.347904 0.005
0.2 0.354285 0.005
0.2 0.360666 0.005
0.2 0.367047 0.005
0.2 0.373428 0.005
0.2 0.379809 0.005
0.2 0.38619 0.005
0.2 0.392571 0.005
0.2 0.398952 0.005
0.2 0.405333 0.005
0.2 0.411714 0.005
0.2 0.418095 0.005
0.2 0.424476 0.005
0.2 0.430857 0.005
0.2 0.437238 0.005
0.2 0.443619 0.005
0.2 0.45 0.005
0.2 0.456381 0.005
0.2 0.462762 0.005
0.2 0.469143 0.005
0.2 0.475524 0.005
0.2 0.481905 0.005
0.2 0.488286 0.005
0.2 0.494666 0.005
0.2 0.501047 0.005
0.2 0.507428 0.005
0.2 0.513809 0.005
0.2 0.52019 0.005
0.2 0.526571 0.005
0.2 0.532952 0.005
0.2 0.539333 0.005
0.2 0.545714 0.005
0.2 0.552095 0.005
POINT_DATA 85
 FIELD attributes 1
alpha.water 1 85 float
1 1 1 0.998517 0.973166 0.950966 0.85334 0.448907 0.199465 0.538595 0.815202 0.453292 0.0491637 0.000228195 0.000207277 0.000205898 0.000598618 0.0249877 0.0948596 0.142183 0.131386 0.0620719 0.00261525 0.000319938 0.0011263 0.00743239 0.0165763 0.0110684 0.00107063 0.000108423 0.000280657 0.000470017 0.002424 0.00450768 0.00461785 0.00451272 0.00334081 0.00120705 0.000113795 3.50299e-05 8.34214e-07 2.18712e-10 2.61233e-10 1.89944e-10 4.93708e-11 1.84387e-11 1.32007e-11 1.15837e-11 1.42785e-11 2.18876e-11 9.96365e-11 6.62829e-07 1.75143e-05 2.181e-05 5.47413e-06 1.28292e-06 8.0131e-05 0.00250202 0.00573094 0.00604813 0.00289774 0.000157901 -1.57101e-10 9.03701e-12 2.12443e-11 2.32447e-11 1.15344e-11 2.84298e-12 1.25596e-12 8.74267e-13 1.28804e-12 3.60998e-12 7.5474e-12 1.05548e-11 3.12479e-11 4.41749e-11 8.83905e-11 2.02207e-10 2.23915e-10 1.22916e-10 4.25356e-11 1.21748e-11 1.1199e-12 9.14006e-15 8.20028e-16
