/*--------------------------------*- C++ -*----------------------------------*\
| =========                 |                                                 |
| \\      /  F ield         | OpenFOAM: The Open Source CFD Toolbox           |
|  \\    /   O peration     | Version:  v1912                                 |
|   \\  /    A nd           | Website:  www.openfoam.com                      |
|    \\/     M anipulation  |                                                 |
\*---------------------------------------------------------------------------*/
FoamFile
{
    version     2.0;
    format      ascii;
    class       surfaceScalarField;
    location    "0.95";
    object      alphaPhi0.water;
}
// * * * * * * * * * * * * * * * * * * * * * * * * * * * * * * * * * * * * * //

dimensions      [0 3 -1 0 0 0 0];
oriented        oriented;


internalField   nonuniform List<scalar> 
17936
(
1.09923e-06
-6.51172e-07
-4.48054e-07
-1.77978e-06
2.07813e-06
-2.98349e-07
-1.6161e-06
5.76548e-07
1.03955e-06
3.21716e-07
-7.07798e-07
3.86082e-07
7.20579e-07
-5.77598e-07
-1.42981e-07
4.62537e-07
-4.44804e-07
-1.77326e-08
4.79216e-07
-4.92807e-07
1.35903e-08
4.3244e-07
-2.60006e-07
-1.72434e-07
-1.11794e-07
8.00788e-07
-6.88994e-07
-1.8227e-06
2.95337e-06
-1.12648e-06
-3.99232e-06
5.04402e-06
-1.02711e-06
-5.91274e-06
6.20922e-06
-4.16001e-07
-5.65938e-06
4.21378e-06
1.44088e-06
-3.07024e-06
2.71118e-06
3.59067e-07
-2.82281e-06
2.85987e-06
-3.70645e-08
-2.75602e-06
2.77473e-06
-1.87092e-08
-3.27853e-06
5.34129e-06
-2.06286e-06
-5.90371e-06
1.96984e-06
3.92368e-06
3.73313e-06
-9.92886e-06
6.18934e-06
1.21694e-05
-9.69898e-06
-2.48562e-06
7.10474e-06
-5.1353e-06
-1.96943e-06
3.3318e-06
-1.76399e-06
-1.56775e-06
4.1268e-07
5.37504e-07
-9.50179e-07
-6.45762e-07
2.21242e-06
-1.56666e-06
2.31105e-06
-3.03531e-06
-2.03118e-07
9.27374e-07
3.26764e-06
-2.98417e-06
-1.35059e-06
1.06712e-06
2.76515e-06
-3.05868e-06
-8.65519e-07
1.15905e-06
3.69146e-06
-4.27205e-06
-5.62854e-07
1.14343e-06
4.54633e-06
-4.45015e-06
-1.45181e-07
4.90041e-08
4.0439e-06
-3.41325e-06
3.92754e-07
-1.02341e-06
2.63343e-06
-1.75697e-06
1.09019e-06
-1.96665e-06
8.42532e-07
4.96152e-08
1.78789e-06
-2.68004e-06
-8.7971e-07
1.69387e-06
1.73902e-06
-2.63467e-06
-2.51774e-06
3.36384e-06
7.14653e-07
-1.56119e-06
-4.2129e-06
5.03832e-06
1.05652e-06
-1.8835e-06
-5.98469e-06
7.33182e-06
-2.19006e-07
-9.10344e-07
-8.15476e-06
8.2581e-06
1.08978e-07
-2.12306e-07
-7.65456e-06
6.44258e-06
-7.49721e-07
1.96163e-06
-4.60677e-06
2.184e-06
-1.24717e-06
3.66994e-06
1.17645e-07
-1.45587e-06
2.69948e-06
-1.34804e-06
1.42866e-06
-4.06629e-06
-6.55247e-06
9.19349e-06
9.81776e-06
-1.19359e-05
-1.14299e-05
1.35837e-05
9.91394e-06
-7.37585e-06
5.81265e-06
-8.35093e-06
5.5834e-06
-4.00488e-06
3.77106e-06
-5.34958e-06
2.61732e-06
-1.42272e-06
2.82686e-06
-4.02166e-06
5.80445e-07
-2.14175e-07
1.63744e-06
-2.00374e-06
-3.80714e-06
5.40616e-06
-1.59901e-06
2.84989e-06
-3.9214e-06
-1.70254e-06
2.77405e-06
4.44559e-06
-4.16843e-06
-7.42754e-07
4.65594e-07
3.51994e-06
-3.06082e-06
-1.07247e-06
6.13357e-07
2.92585e-06
-2.95814e-06
-1.39568e-06
1.42798e-06
3.03108e-06
-3.0851e-06
2.80008e-08
2.60218e-08
3.05097e-06
-2.84474e-06
1.40818e-06
-1.61441e-06
2.41249e-06
-1.74083e-06
2.68807e-06
-3.35973e-06
8.43773e-07
2.53532e-07
3.66552e-06
-4.76282e-06
-1.51315e-06
2.94041e-06
3.80269e-06
-5.23002e-06
-4.54268e-06
6.14564e-06
3.15062e-06
-4.75358e-06
-7.588e-06
8.78429e-06
3.03026e-06
-4.22655e-06
-9.80919e-06
1.06404e-05
1.83244e-06
-2.66369e-06
-1.10239e-05
1.06957e-05
-9.07963e-08
4.19065e-07
-9.67837e-06
8.16843e-06
-3.38023e-06
4.89008e-06
-6.41898e-06
4.34255e-06
-6.14506e-06
8.22158e-06
-1.31753e-06
-2.85767e-06
-1.73493e-06
6.01043e-06
7.01777e-06
-9.49863e-06
-1.19254e-05
1.441e-05
9.57542e-06
-7.98817e-06
-1.29532e-05
1.0437e-05
6.69765e-06
-5.81692e-06
1.01267e-05
-1.10075e-05
5.01016e-06
-3.90021e-06
6.67759e-06
-7.78754e-06
2.57994e-06
-1.31254e-06
5.22784e-06
-6.49524e-06
4.80416e-07
-7.44791e-08
2.38848e-06
-2.79442e-06
-7.05964e-06
8.79053e-06
-1.73089e-06
3.45486e-06
-5.27352e-06
-4.26219e-06
6.08085e-06
6.12966e-06
-5.72255e-06
-1.37399e-07
-2.69705e-07
4.80132e-06
-4.08477e-06
4.36044e-08
-7.60156e-07
3.72872e-06
-3.64854e-06
-1.36815e-06
1.28796e-06
3.71177e-06
-3.78395e-06
-1.28771e-07
2.00953e-07
3.73579e-06
-3.47743e-06
1.81016e-06
-2.06852e-06
2.97618e-06
-2.2297e-06
4.05573e-06
-4.8022e-06
1.24252e-06
-2.92913e-08
5.91939e-06
-7.13261e-06
-1.37938e-06
2.95085e-06
6.74558e-06
-8.31705e-06
-4.6318e-06
6.28781e-06
6.37233e-06
-8.02833e-06
-7.80718e-06
9.14148e-06
5.45623e-06
-6.79053e-06
-1.03297e-05
1.1334e-05
3.53759e-06
-4.54186e-06
-1.19074e-05
1.16858e-05
-6.74807e-07
8.96444e-07
-1.0561e-05
8.77174e-06
-6.50078e-06
8.29004e-06
-6.72045e-06
4.74422e-06
-1.01008e-05
1.2077e-05
-2.69366e-06
-7.0767e-07
-1.03873e-05
1.38173e-05
5.09064e-06
-6.58943e-06
-1.47483e-05
1.61938e-05
4.92454e-06
-3.53026e-06
-8.33699e-06
6.87984e-06
3.46802e-06
-4.83565e-06
1.0667e-05
-9.29932e-06
4.92416e-06
-3.91942e-06
8.78261e-06
-9.78734e-06
2.25271e-06
-5.81884e-07
7.91429e-06
-9.58511e-06
-2.39156e-07
3.73247e-07
3.10842e-06
-3.24252e-06
-1.05773e-05
1.23616e-05
-1.78428e-06
3.96601e-06
-5.96516e-06
-8.06419e-06
1.00633e-05
6.73167e-06
-6.29604e-06
7.1862e-07
-1.15425e-06
5.4831e-06
-4.91917e-06
1.43733e-06
-2.00126e-06
4.65844e-06
-4.62392e-06
-1.21975e-06
1.18522e-06
4.67409e-06
-4.66847e-06
-2.24097e-07
2.18475e-07
4.51703e-06
-4.16964e-06
2.3853e-06
-2.7327e-06
3.59699e-06
-2.77794e-06
5.59087e-06
-6.40993e-06
1.69999e-06
-3.68751e-07
8.4038e-06
-9.73505e-06
-1.20709e-06
3.03612e-06
9.98126e-06
-1.18103e-05
-5.02601e-06
6.9003e-06
9.81313e-06
-1.16874e-05
-8.48027e-06
9.78164e-06
8.23231e-06
-9.53367e-06
-1.11136e-05
1.27122e-05
5.77878e-06
-7.37738e-06
-1.41348e-05
1.42319e-05
-1.12632e-06
1.02929e-06
-1.26046e-05
1.00538e-05
-1.03728e-05
1.29236e-05
-7.42126e-06
5.0489e-06
-1.42498e-05
1.66222e-05
-3.03088e-06
1.24172e-06
-1.62339e-05
1.80231e-05
6.72291e-07
-1.5156e-06
-1.75891e-05
2.06762e-05
5.84539e-07
-4.06013e-07
-5.60493e-06
5.87889e-06
3.31353e-06
-5.37879e-06
7.43043e-06
-5.36518e-06
5.6405e-06
-4.33478e-06
1.09054e-05
-1.22111e-05
1.79097e-06
8.20792e-07
1.15734e-05
-1.41852e-05
-1.88331e-06
1.1926e-06
3.07701e-06
-2.3863e-06
-1.40643e-05
1.5604e-05
-1.53968e-06
3.76417e-06
-5.55891e-06
-1.19834e-05
1.37781e-05
6.25933e-06
-5.93712e-06
1.54123e-06
-1.85308e-06
5.35315e-06
-5.17882e-06
2.39434e-06
-2.56868e-06
5.21972e-06
-5.33439e-06
-1.20995e-06
1.32462e-06
5.45247e-06
-5.47865e-06
-2.15057e-07
2.41244e-07
5.34082e-06
-4.99873e-06
3.08682e-06
-3.42891e-06
4.42168e-06
-3.57294e-06
7.24859e-06
-8.09733e-06
2.39238e-06
-8.12306e-07
1.11528e-05
-1.27329e-05
-1.13184e-06
3.14919e-06
1.38522e-05
-1.58695e-05
-4.76546e-06
5.85825e-06
1.32804e-05
-1.43695e-05
-6.68227e-06
6.69553e-06
1.03469e-05
-8.02167e-06
-7.0518e-06
8.41998e-06
9.19333e-06
-7.13819e-06
-1.13264e-05
1.46876e-05
2.46039e-07
-2.51239e-06
-1.47569e-05
1.20171e-05
-1.59046e-05
1.86444e-05
-8.51384e-06
5.54595e-06
-1.92485e-05
2.22164e-05
-3.28938e-06
1.67543e-06
-1.96042e-05
2.12181e-05
-8.64096e-07
9.56932e-07
-2.1585e-05
2.14923e-05
-7.88667e-07
-1.65145e-06
-7.44247e-06
9.88259e-06
5.08506e-06
-7.2494e-06
3.25251e-06
-1.08818e-06
7.52927e-06
-4.95612e-06
1.3907e-05
-1.64801e-05
-4.35713e-07
5.65169e-06
1.80133e-05
-2.32286e-05
-6.63947e-06
3.26445e-06
5.49251e-07
2.82577e-06
-1.69099e-05
1.79291e-05
-1.0192e-06
2.8796e-06
-4.37248e-06
-1.5428e-05
1.69209e-05
5.15478e-06
-4.99864e-06
2.08695e-06
-2.22393e-06
4.65106e-06
-5.02038e-06
2.48392e-06
-2.13901e-06
5.51357e-06
-5.89101e-06
-1.55921e-06
1.93665e-06
6.17311e-06
-6.32103e-06
-3.1881e-07
4.66736e-07
6.28104e-06
-6.01941e-06
3.74077e-06
-4.00239e-06
5.4905e-06
-4.52603e-06
8.96588e-06
-9.93036e-06
2.90862e-06
-1.06588e-06
1.45513e-05
-1.6394e-05
6.92967e-08
3.6529e-07
1.7276e-05
-1.62375e-05
-9.42006e-07
1.46668e-06
9.59658e-06
-6.2446e-06
-1.56052e-06
1.16282e-06
3.49059e-06
-3.57198e-06
-4.9371e-07
2.12272e-08
4.33792e-06
-5.15877e-06
-3.99729e-07
5.25638e-06
4.942e-06
-1.09182e-05
-1.03835e-05
1.15432e-05
-1.99782e-05
1.88185e-05
-9.27163e-06
6.1449e-06
-2.5461e-05
2.85878e-05
-3.568e-06
1.6744e-06
-2.29691e-05
2.48627e-05
-3.42443e-07
-4.47628e-07
-2.17196e-05
2.25097e-05
1.72487e-06
-4.49212e-06
-1.25968e-05
1.5364e-05
7.75729e-06
-1.01438e-05
-1.18474e-06
3.57122e-06
1.00263e-05
-7.12437e-06
2.00643e-05
-2.2964e-05
3.9037e-06
-1.22562e-06
2.80282e-05
-2.87323e-05
-3.13434e-06
3.46713e-06
-6.09697e-06
5.76458e-06
-1.86351e-05
1.90183e-05
-3.83197e-07
1.57927e-06
-2.67042e-06
-1.82328e-05
1.93239e-05
3.56275e-06
-3.66123e-06
2.21398e-06
-2.10516e-06
3.69765e-06
-4.69898e-06
1.51374e-06
-5.43312e-07
5.69728e-06
-6.38992e-06
-2.46948e-06
3.16212e-06
6.90577e-06
-7.25067e-06
-7.0394e-07
1.04885e-06
7.38974e-06
-7.22467e-06
4.19985e-06
-4.36492e-06
6.47075e-06
-4.96616e-06
1.11595e-05
-1.26641e-05
3.83595e-06
-4.4888e-06
1.73519e-05
-1.51457e-05
3.36485e-06
-4.70327e-06
7.78119e-06
-6.64155e-06
5.23509e-06
-7.23888e-06
6.52144e-06
-8.92381e-06
1.01674e-05
-9.29596e-06
5.31624e-06
-3.93941e-06
7.12999e-06
-4.25898e-06
8.09113e-06
-6.04774e-06
3.47202e-06
-5.68751e-06
1.43877e-05
-6.74958e-06
2.1069e-06
4.19066e-06
-1.3965e-05
7.64218e-06
-6.52532e-06
5.76887e-06
-3.0991e-05
3.1741e-05
-3.95938e-06
2.15193e-06
-2.68399e-05
2.86474e-05
-4.52484e-07
-1.13576e-06
-2.37756e-05
2.53638e-05
3.10451e-06
-6.13026e-06
-1.81819e-05
2.12077e-05
9.71269e-06
-1.26196e-05
-6.08808e-06
8.99514e-06
1.55104e-05
-2.02385e-05
2.1639e-05
-1.50884e-05
2.62348e-05
-2.64068e-05
3.03344e-05
-3.04985e-05
2.01008e-05
-6.49465e-06
1.03165e-06
-1.46379e-05
7.54345e-06
-1.36008e-05
6.0573e-06
-8.07485e-06
5.05667e-06
3.25517e-06
3.79179e-06
-1.55208e-05
1.19893e-05
1.70254e-05
-1.15166e-05
-3.62272e-06
6.32167e-06
-5.85543e-06
-7.28249e-07
5.29157e-06
-6.06012e-06
7.48995e-07
9.5104e-06
-1.37705e-05
4.19396e-06
1.63427e-05
-1.68998e-05
5.82919e-07
1.59145e-05
-1.22938e-05
-2.29315e-06
7.06328e-06
-4.57145e-08
-3.61507e-06
-2.5245e-06
6.2192e-06
-3.89329e-06
-8.56675e-06
9.23042e-06
-6.68001e-07
-8.81595e-06
7.7469e-06
1.06875e-06
-6.17421e-06
4.32683e-06
1.84713e-06
-6.94183e-06
5.0919e-06
6.58948e-06
2.78809e-06
-4.46853e-06
1.68129e-06
9.27158e-07
-2.24709e-06
1.79752e-06
1.07445e-05
-1.71046e-05
6.32331e-06
1.49655e-05
-5.67197e-06
-1.03658e-05
1.82066e-05
-1.93337e-05
1.12735e-06
-2.87969e-06
-8.1999e-06
-1.0223e-05
2.15253e-05
1.71067e-05
-1.21385e-05
-1.41404e-05
1.47314e-05
1.2347e-05
-7.08231e-06
1.18701e-05
-1.99592e-05
1.84609e-06
-2.36283e-06
-6.7019e-07
8.01972e-07
9.88446e-06
-1.74988e-05
-4.3172e-06
9.87949e-06
2.14125e-05
-2.43812e-05
-6.61729e-06
9.59349e-06
1.70488e-05
-1.28085e-05
-3.52805e-06
3.93261e-06
1.09333e-05
-5.48278e-06
5.95921e-06
-1.32743e-05
7.65709e-07
4.56258e-06
1.30466e-05
-2.61956e-05
-1.09762e-05
1.93504e-05
2.45522e-05
-3.28565e-05
-2.46342e-05
2.79549e-05
6.77295e-06
-1.00279e-05
-2.99774e-05
3.11257e-05
-4.26535e-06
3.7827e-06
-3.25405e-05
3.35452e-05
-9.5254e-06
9.44203e-06
-3.22925e-05
2.79925e-05
-1.49078e-05
1.92141e-05
-1.63149e-05
1.96652e-06
-1.08418e-05
2.58274e-05
9.30867e-06
-1.66276e-05
-7.97987e-06
1.53758e-05
2.15569e-05
-1.91691e-05
-8.60141e-06
6.46909e-06
1.58365e-05
-8.87827e-06
1.88115e-05
-2.51667e-05
1.69786e-05
-1.23411e-05
-4.63699e-06
9.05114e-06
-1.77684e-05
-3.21418e-05
4.091e-05
2.48396e-05
-2.41035e-05
-2.18152e-05
2.09104e-05
1.91817e-05
-1.61492e-05
2.47944e-05
-2.68063e-05
1.21357e-05
-6.69997e-06
5.24895e-07
-2.56206e-06
9.23372e-06
-1.91747e-05
-1.2469e-05
1.59985e-05
2.23362e-05
-1.20725e-05
-1.15879e-05
1.221e-05
1.37695e-05
-1.23739e-05
-2.18304e-06
-5.07642e-07
8.77821e-06
-3.80379e-07
3.37779e-05
-3.83579e-05
4.2413e-08
-6.56861e-07
2.88631e-05
-2.82265e-05
-2.35958e-06
1.04643e-05
4.03182e-05
-4.74322e-05
-1.59867e-05
1.94307e-05
1.35766e-05
-9.67292e-06
-2.29695e-05
2.50641e-05
-1.98693e-06
3.85486e-07
-2.6657e-05
2.79491e-05
-8.63223e-06
7.34291e-06
-2.81617e-05
2.72835e-05
-2.12017e-05
2.20837e-05
-2.31941e-05
1.03174e-05
-4.1159e-05
5.37561e-05
3.11928e-06
-9.29211e-06
-2.2943e-05
1.91168e-05
6.33149e-06
-6.07352e-06
-3.8963e-06
3.62277e-06
5.46481e-06
-5.93954e-06
1.75523e-05
-1.71104e-05
6.78195e-06
-1.70988e-06
-5.10558e-06
1.04973e-05
-1.45213e-05
-4.74167e-05
5.14377e-05
6.98104e-06
-3.19793e-06
-1.20774e-05
3.99668e-06
2.31455e-06
-4.65177e-06
1.66208e-05
-1.19922e-05
1.87301e-05
-1.83159e-05
5.09345e-06
-4.7722e-06
1.88865e-05
-2.25904e-05
-2.34694e-05
2.84373e-05
2.61968e-05
-2.73764e-05
-1.73728e-05
2.32949e-05
1.51442e-05
-2.73708e-06
5.82106e-06
-4.23597e-06
2.21657e-06
-1.98029e-06
4.52115e-05
-5.26169e-05
7.76791e-06
-1.49616e-05
2.41628e-05
-1.75763e-05
1.53492e-05
-2.3957e-06
5.36859e-05
-6.68627e-05
-1.13365e-06
1.68588e-06
2.5433e-06
-3.2755e-06
-2.05867e-06
2.16738e-06
-8.87243e-08
-3.70595e-08
-2.25614e-06
2.74185e-06
-1.87989e-06
6.07395e-07
-4.79917e-06
1.30551e-05
-2.00128e-05
3.31539e-06
-2.02535e-05
1.36339e-05
-6.43201e-05
7.06805e-05
-2.12728e-06
-6.27786e-07
-2.42492e-05
3.82886e-05
7.38961e-07
-1.06695e-06
-4.4767e-06
4.78769e-06
9.97604e-07
-5.75383e-07
1.75847e-05
-2.19849e-05
-2.13155e-06
4.39179e-06
-2.25972e-06
4.07287e-06
-1.8879e-07
-5.08183e-05
4.54469e-05
-4.99723e-07
-2.34354e-07
-3.79587e-06
4.32813e-06
2.10237e-06
-1.35683e-05
2.27272e-05
-1.7603e-05
2.04445e-05
-2.4791e-05
3.58391e-06
-2.11137e-06
2.51701e-05
-2.70321e-05
-3.13501e-05
3.32686e-05
2.89414e-05
-1.33252e-05
-2.18822e-05
1.38835e-05
6.98926e-06
-3.21063e-06
7.96853e-06
-1.33191e-05
1.44843e-06
-7.78481e-06
4.75161e-05
-3.97525e-05
1.47925e-05
-2.30698e-05
9.07707e-06
-6.55163e-07
2.52598e-05
-2.81808e-05
7.49938e-05
-6.45495e-05
1.74497e-05
-1.78188e-06
7.17008e-06
-4.39846e-05
-3.16178e-07
6.59187e-07
3.86146e-07
-6.91489e-07
-7.42926e-07
8.66621e-07
-5.20233e-07
4.15145e-07
-1.08005e-06
1.22018e-06
-2.03204e-06
1.86268e-06
-4.21671e-06
1.14689e-05
-7.06148e-05
6.57914e-05
-5.83358e-06
-3.96051e-07
-4.39658e-05
4.99258e-05
8.06152e-07
1.51644e-06
-8.98216e-06
6.84913e-06
-1.37018e-06
2.46032e-06
2.9494e-05
-2.68977e-05
-5.9156e-06
7.66246e-06
-2.29192e-06
-1.69256e-06
8.14448e-06
-3.89458e-05
3.24945e-05
-1.92235e-06
1.56e-06
-4.72605e-06
4.97237e-06
-1.40706e-08
-1.15817e-05
8.27222e-06
-1.56142e-06
2.51085e-05
-2.99082e-05
-8.57889e-07
5.66634e-06
3.11703e-05
-2.98415e-05
-3.41771e-05
3.28709e-05
9.11762e-06
-5.5903e-06
-1.02215e-05
3.23228e-06
8.46926e-06
-3.95018e-06
4.70266e-05
-6.28432e-05
6.38241e-06
-1.1528e-05
3.74962e-05
-3.30843e-05
1.39116e-05
-6.01405e-06
-4.44831e-06
4.09109e-06
7.19853e-06
-2.12373e-05
5.48684e-05
-3.80314e-05
2.4303e-05
-2.15135e-05
5.94541e-05
-6.46674e-05
6.04259e-06
-1.79917e-07
1.71913e-06
-1.21204e-05
-3.68293e-07
3.71603e-07
-5.3118e-07
5.66025e-07
-3.80811e-07
4.04574e-07
-1.7193e-06
1.68238e-06
-7.23159e-07
9.09592e-06
-5.69311e-05
2.8664e-05
-7.23802e-06
3.54711e-06
-5.5206e-05
5.90073e-05
-3.38209e-06
2.12037e-06
-3.96883e-06
2.6448e-06
-3.10534e-06
3.21606e-06
3.0495e-05
-3.99458e-05
-8.09351e-06
4.63616e-06
4.13552e-06
-4.50173e-06
9.81198e-06
-2.62041e-05
2.06694e-05
-1.02099e-05
2.54065e-06
-7.07521e-06
1.83187e-05
-7.72115e-07
-4.33486e-06
-2.60925e-06
5.69945e-06
1.62602e-05
-2.3624e-05
-1.28796e-05
1.85675e-05
1.42942e-05
-7.21794e-06
-1.77113e-05
6.55363e-06
4.90215e-06
-7.3772e-06
-2.81156e-07
-5.62625e-06
3.36146e-06
-6.39483e-06
6.27787e-05
-5.97159e-05
1.17007e-05
-1.42077e-05
2.98984e-05
-2.73619e-05
7.86587e-06
-5.14234e-07
-2.29819e-06
1.34805e-06
6.76251e-07
-7.50534e-06
1.36087e-05
-3.23851e-06
2.03723e-05
-2.31581e-05
6.4353e-05
-6.13522e-05
2.17118e-05
-1.01427e-05
3.3654e-05
-4.4559e-05
8.26721e-07
-1.45054e-07
-2.25294e-07
-3.10477e-07
9.13341e-08
-1.23205e-07
-1.83123e-06
1.8889e-06
8.18957e-08
3.97766e-07
-3.56803e-06
3.20042e-06
-7.31071e-06
4.93493e-06
-6.16807e-05
6.40837e-05
-4.05095e-06
4.44685e-06
-4.29785e-06
4.89656e-06
-3.32708e-06
9.33574e-07
3.78873e-05
-3.54828e-05
-3.37967e-05
9.46202e-06
2.40741e-05
-2.29213e-05
2.35329e-05
-1.67213e-05
1.55613e-05
-2.09298e-05
1.75868e-05
-4.34946e-05
4.62597e-05
-7.52806e-06
8.89402e-06
-1.42165e-05
4.28271e-05
-6.4558e-07
-2.15252e-06
-2.12276e-05
3.13846e-05
3.05759e-06
-5.11704e-06
-4.38369e-06
6.30924e-06
4.1475e-06
-3.18771e-06
1.61869e-05
-3.80102e-06
6.31109e-06
-1.21114e-05
5.33511e-05
-5.12919e-05
1.73161e-05
-1.77009e-05
2.58434e-05
-2.53799e-05
6.31071e-06
4.13894e-07
3.51809e-07
-3.85051e-06
-1.00899e-06
5.65482e-07
2.32046e-06
-1.97214e-06
6.59146e-06
-1.85151e-05
5.41401e-05
-3.73841e-05
2.20966e-05
-2.19261e-05
4.75595e-05
-4.68275e-05
9.1664e-06
-1.34389e-06
1.38635e-06
-2.4155e-06
9.56115e-07
-6.69805e-07
-1.73634e-06
1.46726e-06
4.62241e-07
-1.27865e-06
-3.68181e-06
3.73022e-06
8.55069e-07
1.14973e-06
-6.58722e-05
4.25736e-05
-2.72435e-06
2.72789e-06
-4.68102e-06
4.49508e-06
-2.21548e-07
-2.05064e-06
3.3306e-05
-3.14411e-05
-1.8912e-05
1.79727e-05
9.39278e-07
-2.87251e-07
-3.94753e-07
-2.01391e-05
2.08211e-05
2.02145e-06
-3.57871e-06
1.88805e-06
-3.18286e-07
6.11917e-06
-9.74482e-06
-7.96215e-07
4.33785e-06
1.27106e-05
-1.49351e-05
-3.99961e-06
6.22407e-06
1.68478e-05
-1.84354e-05
-1.5211e-06
3.10877e-06
1.93354e-05
-1.88506e-05
4.58487e-06
-5.06968e-06
1.82083e-05
-2.25399e-05
1.3722e-05
-9.38031e-06
2.62562e-05
-2.71222e-05
7.09791e-06
2.47331e-06
2.96308e-05
-4.56144e-05
3.57417e-06
-1.09333e-07
4.37511e-05
-2.88416e-05
5.52283e-06
-5.65006e-06
2.63102e-05
-2.14357e-05
4.61768e-06
-1.00604e-05
1.85199e-05
-1.65382e-05
8.03531e-06
-1.49736e-05
1.2533e-05
-5.77068e-06
5.95548e-06
-1.34587e-05
9.46748e-06
-1.11153e-05
-2.89983e-06
-1.09926e-06
9.37582e-06
-6.77401e-06
-3.03797e-05
1.23644e-05
4.70964e-06
-3.86706e-06
-2.95338e-05
1.99696e-05
4.97366e-06
-6.54854e-06
-2.66983e-05
2.82731e-05
8.19058e-06
-1.28318e-05
-2.43164e-05
2.87597e-05
2.15051e-05
-3.49381e-05
-1.31538e-05
2.66093e-05
5.37749e-05
-7.11935e-05
5.4014e-06
1.4565e-05
8.70087e-05
-9.53976e-05
3.08722e-05
-2.33948e-05
9.5606e-05
-8.57066e-05
2.75343e-05
-3.74519e-05
-1.62752e-05
1.3257e-05
3.01828e-06
-2.73699e-06
4.13285e-06
-2.00492e-05
1.86533e-05
-3.8783e-06
5.39017e-07
-2.17338e-06
5.51266e-06
5.45868e-06
-1.04432e-05
-8.76291e-06
1.36634e-05
1.42791e-05
-1.79396e-05
-9.16235e-06
1.28228e-05
2.14273e-05
-2.4317e-05
-5.39454e-06
8.28426e-06
2.66678e-05
-3.2315e-05
3.96622e-06
1.68323e-06
4.62715e-05
-4.26292e-05
-7.79564e-06
1.91485e-05
6.51554e-05
-9.75676e-05
-1.59247e-05
3.01293e-05
0.000109433
-0.000111889
-7.72679e-06
1.23184e-05
0.000101791
-9.54453e-05
1.15392e-05
-2.0433e-05
9.26907e-05
-9.68834e-05
2.2083e-05
-1.72886e-05
0.000100783
-0.000102164
2.97476e-05
-2.76114e-05
0.000101715
-0.000102322
2.64667e-05
-2.49255e-05
9.399e-05
-4.39192e-05
7.56785e-06
-1.37835e-05
3.8033e-05
-3.42848e-05
-6.1654e-06
7.91077e-07
3.24612e-05
-4.26007e-05
-1.06206e-05
9.22634e-06
4.59817e-05
-4.76578e-05
-1.76257e-05
1.82186e-05
4.64127e-05
-4.62907e-05
-3.12013e-05
3.07979e-05
4.95468e-05
-5.68895e-05
-4.17783e-05
4.90374e-05
6.3764e-05
-6.88982e-05
-2.95495e-05
3.20602e-05
5.68006e-05
-4.07802e-05
1.16222e-05
-4.26746e-06
5.81362e-05
-8.51526e-05
4.48188e-05
-2.68384e-05
-8.81299e-06
3.87338e-06
4.9396e-06
-5.96756e-06
7.06282e-06
-1.73471e-05
1.62518e-05
-6.43071e-06
1.0642e-06
-9.73454e-06
1.5098e-05
5.58603e-06
-1.03679e-05
-1.88438e-05
2.37035e-05
1.47062e-05
-1.92011e-05
-1.69808e-05
2.14756e-05
2.38587e-05
-2.8926e-05
-1.18951e-05
1.69625e-05
3.55631e-05
-4.37004e-05
-1.09825e-05
2.12932e-05
3.71009e-05
-3.80422e-05
-2.71631e-05
3.51112e-05
7.84587e-05
-8.21016e-05
-4.54801e-05
4.95589e-05
7.58187e-05
-5.82676e-05
-2.56264e-06
-1.28483e-05
2.17667e-05
-8.72031e-06
1.68108e-05
-2.30944e-05
3.59275e-07
3.87929e-07
4.41517e-06
-3.6496e-07
-6.26153e-07
-1.92576e-05
8.60783e-06
3.28914e-07
3.01769e-05
-1.86109e-05
1.38483e-05
2.893e-07
2.89823e-05
-5.29378e-05
1.06387e-05
-2.39663e-06
7.98736e-05
-7.31287e-05
7.64336e-06
-6.07988e-06
4.51254e-05
-3.16847e-05
-1.36172e-06
-2.99884e-08
2.65123e-05
-2.59784e-05
-9.31521e-06
2.15775e-07
2.96174e-05
-3.44909e-05
-2.6071e-05
3.91423e-06
3.30535e-05
-2.61216e-05
-3.76928e-05
8.38134e-06
2.4772e-05
-3.02712e-05
-1.79396e-05
8.11871e-06
2.56027e-05
-5.58853e-06
-1.24814e-06
-1.01366e-06
1.82191e-06
-5.24604e-07
5.39896e-06
-3.29517e-06
5.31751e-07
-3.95226e-06
3.42051e-06
-8.08761e-06
8.61009e-06
-1.53279e-05
1.48054e-05
-5.10911e-06
-1.0133e-06
-2.10782e-05
2.72016e-05
6.12777e-06
-1.02203e-05
-2.80832e-05
3.21758e-05
1.39903e-05
-1.74082e-05
-2.58945e-05
2.93126e-05
2.18508e-05
-2.89709e-05
-2.37668e-05
3.0856e-05
3.87805e-05
-4.90398e-05
-3.14364e-05
4.17272e-05
2.35012e-05
-2.39305e-05
-4.33375e-05
4.04677e-05
4.22233e-05
-4.27357e-05
-4.77331e-05
3.73945e-05
3.36756e-05
-2.87888e-05
2.34385e-05
-1.46287e-05
3.35508e-05
-1.10954e-05
2.76555e-05
-1.18824e-05
1.66668e-06
-1.22991e-06
8.22078e-07
-1.52225e-06
2.07522e-07
3.27027e-07
-9.27955e-08
-8.04958e-07
-4.50325e-07
7.7609e-07
-4.99904e-07
1.49277e-07
3.34352e-06
-3.03591e-06
-2.10756e-06
4.53526e-06
5.96774e-08
-5.58398e-08
4.757e-08
-6.55549e-08
8.38542e-08
-9.0568e-08
3.05514e-08
-3.82994e-08
1.2945e-07
2.20796e-08
4.18316e-07
-2.10822e-06
-1.05553e-06
7.42601e-07
-4.02834e-07
-6.76475e-08
-6.77352e-07
2.37992e-07
2.00307e-07
1.28575e-07
4.10061e-07
-2.32733e-06
7.65036e-07
1.20079e-08
2.02489e-06
-9.82259e-07
2.73728e-06
-4.77867e-07
1.31944e-07
-2.91313e-08
1.31609e-06
-9.99789e-08
4.97479e-06
-1.62488e-06
-3.3499e-06
-2.89882e-06
4.66209e-06
-1.44175e-05
1.26542e-05
-4.97829e-06
1.66964e-06
-3.27738e-05
3.60825e-05
3.63242e-06
-8.48028e-06
-3.67265e-05
3.17864e-05
1.11424e-05
-1.14014e-05
-3.14225e-05
2.98503e-05
1.26754e-05
-1.72983e-05
-3.65259e-05
4.11403e-05
2.52614e-05
-3.40691e-05
-5.09667e-05
5.9782e-05
3.88394e-05
-1.619e-05
-6.07953e-05
7.51036e-05
5.29966e-06
-3.41889e-06
-8.7043e-06
6.18113e-06
3.62843e-06
-1.14908e-05
6.2846e-06
-1.79347e-06
1.06772e-06
-8.96644e-07
4.58571e-07
-2.07895e-07
1.29601e-06
-2.56612e-06
2.97596e-06
-1.27487e-06
2.60352e-06
-1.15057e-06
2.62807e-06
-3.44024e-06
1.28977e-08
1.22324e-08
-8.9524e-08
5.44311e-08
4.45106e-07
-1.13645e-06
-1.68908e-06
4.73397e-08
1.78182e-07
-1.45604e-07
1.31238e-08
-4.95809e-09
1.58603e-07
-9.8547e-07
8.39368e-08
-7.33714e-07
2.29407e-06
-2.43541e-06
4.62826e-06
-4.30172e-06
2.22137e-06
-1.37115e-07
1.39943e-06
-2.71311e-06
7.41644e-09
1.4343e-08
-9.07208e-08
6.60297e-08
-1.37629e-08
-4.81349e-10
-2.30768e-08
3.75979e-08
1.87856e-08
-2.85975e-07
4.5297e-07
-3.86112e-07
1.05028e-07
-6.24576e-08
4.99806e-08
-4.75026e-08
-2.86817e-06
6.10111e-06
-3.05278e-06
1.99586e-06
1.92258e-06
-5.90408e-06
1.90118e-06
-2.76843e-06
2.20575e-06
-2.78033e-05
3.1956e-05
3.68361e-07
-4.36714e-06
-2.37282e-05
2.68146e-05
1.13511e-05
-1.15264e-05
-3.114e-05
1.77975e-05
8.59648e-06
-9.86916e-06
-4.65506e-05
8.23026e-06
1.42612e-05
-2.76853e-05
-6.70871e-05
4.69776e-05
3.33997e-05
-2.67032e-05
-7.77738e-05
7.29932e-05
6.38611e-06
-3.43185e-06
-4.99405e-06
6.80538e-06
2.58242e-06
-3.08002e-06
-1.97708e-06
1.18439e-06
2.49403e-07
-1.52752e-07
1.32496e-07
-2.19914e-07
1.79179e-07
-2.70387e-07
8.36732e-07
-8.20299e-07
3.09012e-07
-3.62954e-07
8.8431e-07
-9.05892e-07
5.58624e-07
5.40108e-08
-8.34136e-09
-2.0681e-07
-1.89422e-08
1.35501e-08
-8.69714e-08
7.51898e-08
2.39338e-08
-7.7973e-08
-5.85729e-10
2.02926e-08
2.08467e-06
-1.95004e-06
3.15865e-06
-3.02133e-06
2.50966e-06
-1.57843e-06
3.58416e-06
-4.6051e-09
1.19133e-06
-8.51893e-07
2.82879e-06
-4.65291e-07
1.26159e-08
9.60978e-10
-2.96706e-08
1.50618e-08
-1.22709e-08
1.16734e-08
-4.00723e-08
4.0265e-08
-3.83533e-09
-1.30092e-07
3.12645e-07
-8.03719e-08
1.01267e-07
-6.27399e-07
3.29148e-08
3.21776e-09
-1.03832e-05
2.02642e-05
-8.4487e-06
7.64187e-06
-1.61604e-05
-3.25303e-06
1.1257e-05
2.61131e-05
-3.37602e-05
-3.94976e-05
4.72817e-05
3.18341e-05
-6.57367e-06
-3.049e-05
9.39397e-06
2.31115e-06
-2.11574e-06
-1.52646e-06
7.17462e-07
3.91716e-06
-1.17147e-05
-2.89853e-06
7.12066e-06
4.04731e-05
-4.9995e-05
-4.04404e-05
1.54233e-05
3.78278e-05
-2.05774e-05
-5.45191e-05
1.00109e-05
7.01586e-06
-1.43511e-06
-6.03975e-06
1.15252e-06
-3.50494e-07
2.83531e-06
6.04041e-07
-2.27914e-06
-2.46313e-06
3.42013e-06
1.79892e-06
-1.48494e-06
-9.66577e-07
3.14085e-07
6.11668e-07
-1.41758e-06
-2.21991e-07
-5.65818e-09
8.95141e-07
-7.50562e-07
1.79074e-07
-1.77078e-07
1.3185e-07
-2.88504e-08
1.39147e-08
-7.18569e-09
-7.99188e-08
6.97777e-08
5.26667e-08
-2.04792e-06
-8.3795e-08
2.81011e-07
2.15614e-06
-2.20395e-09
3.18949e-06
-1.33091e-06
1.81625e-09
-2.30426e-09
3.59806e-09
-3.26224e-09
5.40441e-09
-2.97275e-08
2.65833e-08
-4.68921e-09
2.74542e-07
-4.61271e-08
-1.86262e-08
-2.16415e-08
-2.38997e-08
1.25024e-08
-3.77614e-08
4.87538e-08
-9.3231e-09
5.62793e-09
-1.66176e-09
1.37617e-08
3.28209e-08
-5.06878e-08
-8.26476e-09
-4.16573e-09
-3.33426e-05
4.56151e-05
-1.22111e-05
2.93874e-05
-4.47252e-05
-2.55495e-05
4.09462e-05
4.43018e-05
-9.03198e-06
-4.54499e-05
7.22063e-06
1.56679e-06
-1.07212e-06
-1.52072e-06
1.02329e-06
9.96921e-07
-8.43011e-07
-1.03695e-06
8.40807e-07
2.26769e-06
-2.60243e-06
-5.32445e-06
1.61588e-07
2.39246e-06
-2.33802e-06
1.15275e-07
1.10743e-08
2.87718e-06
-9.58232e-07
5.67395e-09
4.06836e-07
1.30458e-07
1.19513e-07
9.69263e-08
-8.52578e-09
-3.59579e-08
4.20277e-08
1.44741e-07
-2.33778e-07
2.58916e-09
-2.56541e-07
7.48875e-07
-6.67579e-07
7.06926e-07
-3.09663e-07
4.75634e-07
-1.25997e-08
1.9626e-06
-2.4342e-06
2.27954e-06
-1.54742e-06
2.5267e-06
-4.48075e-07
6.28006e-07
-7.93021e-07
2.22194e-08
-9.1351e-09
-5.86007e-08
4.25747e-08
5.47004e-09
-1.62798e-07
-3.07177e-07
6.88303e-08
3.15878e-08
-2.53588e-09
3.83207e-08
-6.81606e-08
1.67368e-09
-2.27103e-09
3.63563e-09
-3.79415e-09
3.15838e-09
-1.86911e-09
3.45997e-09
-5.53281e-09
2.5475e-09
-8.82955e-08
7.46042e-08
-1.21525e-08
4.30457e-08
1.8973e-08
-1.4745e-07
3.84246e-08
-5.28129e-09
2.0761e-10
-1.49877e-08
4.22061e-08
-1.76412e-09
8.80436e-10
-1.50388e-09
2.35791e-09
-5.69604e-05
6.51563e-05
-8.9441e-06
8.36456e-06
-1.69458e-06
-4.57587e-05
3.44724e-05
3.67428e-07
-3.52111e-07
-1.27481e-06
1.25582e-06
3.77008e-07
-3.38953e-07
-9.30584e-07
8.86182e-07
2.05351e-07
-2.39887e-07
-6.361e-07
6.59832e-07
1.77973e-07
-6.0556e-07
-9.68358e-09
5.49745e-07
6.302e-07
-1.80617e-07
-4.42395e-07
-2.81223e-08
-2.5631e-08
4.08348e-07
2.72828e-08
-4.87221e-07
-3.09869e-07
1.2044e-07
-6.86931e-09
3.89915e-08
-1.05115e-08
-6.72305e-07
1.91995e-07
2.1308e-07
1.32377e-06
-8.63661e-09
2.60437e-07
-1.5238e-07
9.0456e-09
-8.90507e-09
6.63771e-11
-1.58055e-09
2.7535e-08
-2.69277e-06
1.26389e-06
-7.44003e-08
3.51953e-06
-3.58673e-06
1.00123e-06
-6.70935e-07
2.43626e-06
-1.27997e-08
-2.23248e-08
1.59708e-07
-4.14017e-08
4.43216e-08
-4.74258e-08
1.42439e-08
-4.65193e-08
2.9944e-08
-3.8565e-09
-7.48283e-09
-6.75208e-09
1.17708e-10
5.53204e-09
-3.8713e-10
2.18952e-09
-2.77191e-09
5.03151e-09
-1.70992e-09
6.86408e-11
-1.9712e-10
1.30969e-10
-2.88297e-12
2.59785e-09
-8.76833e-09
-1.27267e-09
-5.04123e-11
2.29995e-10
1.26087e-09
-2.87012e-08
1.30358e-08
-7.14316e-10
5.22937e-10
-3.5846e-09
3.77554e-09
-6.60931e-05
6.03968e-05
-6.67107e-07
-7.47351e-07
4.43329e-06
-9.87941e-06
2.93571e-07
-1.89465e-07
1.63738e-07
-1.64396e-06
1.65602e-06
-3.57914e-08
-4.29922e-08
-8.74605e-07
9.47042e-07
2.10392e-07
-6.19342e-08
-1.96497e-06
1.9764e-06
-1.12438e-08
-1.23345e-08
-8.48521e-08
2.86265e-09
4.13147e-08
-2.01997e-08
3.15176e-09
-1.29023e-09
5.29446e-09
-2.95582e-08
2.29703e-07
-3.54632e-08
-6.76891e-09
6.23362e-08
-3.56892e-09
-1.49156e-07
-6.30188e-08
1.21902e-07
-1.34157e-07
4.2334e-08
-2.17789e-07
2.29765e-07
1.03625e-07
1.58854e-08
-1.82211e-08
7.2012e-09
3.88455e-09
5.67908e-09
-1.02263e-09
-1.06818e-09
1.26684e-10
1.6869e-09
2.04979e-09
-4.13496e-08
4.04331e-08
-1.33762e-09
1.16954e-08
-3.58278e-08
4.9536e-08
-1.07255e-08
6.16566e-08
-2.50591e-07
-5.58501e-09
-3.11784e-08
1.98606e-07
-3.6695e-10
7.77765e-08
-1.62385e-07
3.4598e-11
-1.16911e-13
-8.59028e-11
6.09297e-13
1.39346e-13
-4.0056e-13
2.9906e-13
-1.06399e-13
6.31279e-13
-2.71406e-12
2.06712e-12
-1.44869e-13
3.1179e-11
-3.21687e-10
1.17196e-10
6.93759e-11
5.48286e-08
-7.43603e-08
-3.41179e-08
2.86162e-08
7.74173e-08
-5.63811e-08
-7.018e-08
8.27924e-08
-6.27273e-05
7.21284e-05
-5.19937e-06
1.23256e-06
-2.64855e-06
-4.23115e-06
8.53674e-06
5.93153e-07
-3.30534e-07
-1.66647e-06
1.46725e-06
5.4568e-07
-3.829e-07
-2.2042e-06
2.64974e-06
-1.58561e-07
5.49905e-09
5.59035e-09
-1.34524e-08
-1.48008e-08
2.19074e-08
-4.63585e-09
-4.27697e-09
-1.98796e-08
9.86663e-09
3.81367e-10
3.52828e-09
-7.28515e-09
4.77322e-09
1.68883e-09
5.06512e-10
1.26712e-08
-2.09862e-08
2.36249e-07
-2.10401e-07
-6.69215e-08
1.0057e-07
1.61925e-08
-8.78016e-08
-2.67999e-07
8.37477e-07
6.66851e-08
-1.19825e-06
-1.18395e-06
2.06594e-07
-1.2674e-07
2.08545e-07
-6.75199e-08
1.87823e-08
-1.92701e-08
6.60829e-08
-3.37537e-09
-1.93442e-09
1.34628e-09
3.73589e-09
2.03546e-09
6.844e-10
1.30801e-09
-5.92704e-09
-2.49238e-09
-1.72415e-07
1.90541e-08
2.10361e-08
1.27239e-07
-4.30863e-10
4.20194e-08
-4.7379e-13
7.7135e-12
-6.79288e-12
1.44411e-14
-5.60036e-13
4.03945e-12
-6.16807e-13
1.27998e-13
-9.65917e-13
2.14858e-13
-8.81801e-14
2.28684e-14
-5.48719e-15
-4.39023e-14
1.00724e-12
-1.31273e-12
-1.30501e-13
-4.69766e-12
-2.32734e-09
-2.59889e-09
-1.01189e-10
1.89449e-08
-2.46574e-08
-5.82008e-08
2.067e-09
-8.09595e-05
8.78616e-05
-3.73075e-06
1.07583e-05
-8.54717e-06
-8.33979e-06
1.39335e-05
1.43955e-06
-1.41205e-06
-1.52886e-06
1.67724e-06
6.94677e-07
-2.61838e-07
-2.42567e-06
7.7601e-07
6.59034e-07
-1.7506e-06
1.56123e-07
-6.26184e-07
2.40866e-06
-4.7867e-07
-2.19095e-08
-2.09877e-06
6.77604e-09
-7.84739e-10
-7.50041e-09
7.64527e-10
-1.20038e-10
7.37292e-10
-1.44854e-09
9.04033e-10
-6.64822e-10
1.80916e-08
3.98473e-09
-2.13546e-08
9.00226e-08
-2.63398e-07
1.33584e-06
-3.09367e-06
5.33258e-08
1.61545e-07
3.42788e-06
-3.3097e-06
-3.92574e-07
3.5613e-07
9.89406e-07
-1.16293e-06
7.5409e-08
7.19338e-09
-1.48865e-07
6.15137e-08
-9.96887e-09
6.11042e-09
-1.17726e-08
1.5655e-08
1.00021e-10
-1.09968e-08