/*--------------------------------*- C++ -*----------------------------------*\
| =========                 |                                                 |
| \\      /  F ield         | OpenFOAM: The Open Source CFD Toolbox           |
|  \\    /   O peration     | Version:  v1912                                 |
|   \\  /    A nd           | Website:  www.openfoam.com                      |
|    \\/     M anipulation  |                                                 |
\*---------------------------------------------------------------------------*/
FoamFile
{
    version     2.0;
    format      ascii;
    class       volScalarField;
    location    "0.95";
    object      alpha.water;
}
// * * * * * * * * * * * * * * * * * * * * * * * * * * * * * * * * * * * * * //

dimensions      [0 0 0 0 0 0 0];


internalField   nonuniform List<scalar> 
9072
(
1
1
1
1
1
1
1
1
1
0.997946
0.990919
0.975934
0.969509
1
1
1
0.999919
0.997391
0.997782
0.998273
1
0.999996
0.999996
1
1
1
1
1
1
1
1
1
0.991238
0.960329
0.960543
0.984281
0.999999
0.999993
1
0.995551
0.999363
0.993281
1
1
0.999878
0.999987
1
1
1
1
1
1
1
1
1
0.99999
1
1
1
1
0.999986
0.999993
0.983001
0.999352
0.903351
0.999994
1
1
0.999999
1
1
1
1
1
1
1
1
1
1
1
1
1
1
1
1
0.999725
0.861854
0.862037
1
1
1
0.999999
1
1
1
1
1
1
1
1
1
1
1
0.999999
0.999999
0.999999
1
1
1
0.88915
0.911857
1
1
1
1
1
1
0.999436
1
1
1
1
1
1
0.999998
0.999854
0.938085
0.885963
0.973327
1
1
1
0.999998
1
1
1
0.999988
1
1
1
0.996479
0.995233
1
1
1
1
0.999998
0.988161
0.334535
0.297495
0.305042
0.852465
0.999977
1
1
1
1
1
0.999975
0.938848
0.999586
1
1
0.999648
0.991079
1
1
1
1
0.985461
0.313481
0.431903
0.646503
0.54804
0.655873
0.990026
0.999986
1
1
1
0.999998
0.951752
0.918074
0.999996
0.993053
0.956077
0.98124
0.877872
0.952594
0.993566
0.991282
0.995747
0.978143
0.742871
0.222577
0.215314
0.215071
0.215069
0.766898
0.920342
0.917933
0.749871
0.909385
0.993052
0.955165
0.626624
0.514798
0.468757
0.983602
0.993941
0.411173
0.3598
0.774468
0.963163
0.962829
0.950393
0.959081
0.963498
0.826476
0.91937
0.915119
0.931642
0.993044
0.991976
0.8248
0.824764
0.746042
0.689659
0.759815
0.358765
0.847092
0.963748
0.959406
0.850752
0.949566
0.963546
0.963549
0.897855
0.868761
0.385406
0.385678
0.991602
0.992789
0.163491
0.173999
0.975763
0.968037
0.879903
0.300182
0.877779
0.944157
0.852853
0.0544875
0.0534111
0.0641739
0.283949
0.95803
0.684937
0.385375
0.402734
0.992537
0.899954
0.0854369
0.656677
0.9148
0.991915
0.849789
0.201763
0.884537
0.958235
0.823538
0.467073
0.0530904
0.0529842
0.0528841
0.861841
0.899411
0.891919
0.733694
0.926557
0.992531
0.0829993
0.262931
0.992319
0.991578
0.241376
0.944811
0.932976
0.622968
0.459626
0.776405
0.0972056
0.0530398
0.0528085
0.718653
0.898549
0.46709
0.881232
0.911701
0.991874
0.118185
0.137982
0.975725
0.276379
0.332764
0.944827
0.944827
0.235679
0.0741887
0.762903
0.759941
0.0526222
0.0529802
0.0529761
0.89811
0.772007
0.901194
0.965478
0.975268
0.973192
0.49476
0.719883
0.153643
0.38825
0.88843
0.943838
0.180203
0.054477
0.737319
0.749615
0.0740477
0.0530049
0.0564588
0.804275
0.839662
0.904216
1
1
0.999792
0.985217
1
1
1
0.999909
0.459765
0.545429
0.536054
0.2913
0.291355
0.284943
0.606236
0.859302
0.940625
1
0.993335
0.999861
0.931112
0.996803
0.998407
1
1
1
0.985217
1
1
0.999981
0.753338
0.6361
0.830488
0.840987
0.856822
0.857242
0.855876
0.570324
0.375928
0.543366
0.909967
0.998174
0.999272
0.997856
0.503061
0.847779
1
1
0.999835
0.99844
1
0.999999
0.993634
0.443205
0.832679
0.828584
0.156387
0.0227981
0.325779
0.296054
0.218101
0.729769
0.426754
0.438543
0.620896
0.661744
0.681366
0.293198
0.0424264
1
1
0.999992
1
1
0.999742
0.999256
0.429787
0.832752
0.646101
0.356112
0.00946859
0.00725968
0.00100774
0.175254
0.00093941
0.000939971
0.00743606
0.00844541
0.00177695
0.00623875
0.0333925
0.00488957
1
1
1
0.946437
0.96727
0.999323
0.999279
0.747166
0.11237
0.131611
0.00809742
0.0202554
0.0347972
0.000820445
0.0167185
0.000965723
0.00576311
0.0595612
0.0509741
0.000363719
0.000329264
0.00573516
0.00117757
0.970926
0.83704
0.767907
0.696298
0.863154
0.433294
0.724323
0.938827
0.136082
0.127494
0.00809572
0.00818112
0.00816638
0.00589529
0.000467766
0.00054824
0.0576994
0.0369255
0.0167894
0.000322143
0.000312357
0.00441362
0.00455839
0.892997
0.89195
0.92679
0.327044
0.013656
0.0911596
0.695493
0.628823
0.169181
0.0918263
0.0842676
0.0278893
0.00819337
0.0127685
0.000311366
0.00798263
0.0399688
4.65841e-05
5.64768e-05
0.00698603
0.000312357
0.00193175
0.00129917
0.948332
0.925289
0.333036
0.00887861
0.00895024
0.0550709
0.0862693
0.0656239
0.0126059
0.000958123
0.0208707
0.0127216
0.0484844
0.0443854
0.000281155
0.0077614
5.15419e-05
4.95688e-05
6.96545e-05
0.000736201
0.00363447
0.000707087
5.31702e-05
0.941588
0.832748
0.00894046
0.00866351
0.00869505
0.0567778
0.0112537
0.00872711
0.00158967
0.00927303
0.00701199
0.000117792
0.0136429
0.0484916
0.0146311
0.000432665
0.000318143
9.4596e-05
0.000119842
1.92914e-08
7.0226e-05
9.95032e-05
5.19413e-05
0.798457
0.246202
0.00929892
0.00866351
0.044244
0.00062721
0.00272088
0.000797381
0.00118122
0.000596658
0.00245902
0.00011276
0.000108887
0.000108356
0.000653966
0.00934187
0.0101702
1.63199e-07
5.45258e-09
9.38664e-09
1.516e-06
0.00223418
0.00223155
0.695629
0.253726
0.00927014
0.026027
0.00059026
0.000226475
0.000194972
3.90401e-05
0.00341426
0.000663895
0.0031576
0.00305387
0.000118592
0.000108355
0.00111585
0.00500063
0.000746012
8.51672e-09
6.6809e-08
4.15555e-09
7.50104e-09
1.43322e-05
0.00133373
0.690521
0.222781
0.00956701
0.0139077
0.00693725
0.0153483
3.90865e-05
3.75298e-05
3.75544e-05
0.0367679
0.0409141
0.0401752
0.000157451
0.000128702
0.0014823
4.38705e-05
3.88939e-09
1.89095e-09
9.25826e-08
4.96788e-08
2.41801e-09
2.75739e-10
2.18415e-09
0.0680161
0.275256
0.00643154
0.00119999
0.0276041
0.0380577
0.0382137
0.00881133
0.0326848
0.030011
0.000131219
0.00201763
0.000146122
0.000191848
0.00159136
3.85773e-07
3.54729e-06
3.6819e-10
1.94933e-09
5.79646e-11
3.60721e-11
1.29755e-10
1.58566e-10
0.110687
0.155558
0.00438056
0.00102652
0.0015521
0.000440116
0.0385346
0.0176143
9.45803e-05
9.53012e-05
0.000355883
0.000907549
0.000152079
0.000978305
0.00175397
1.38347e-06
2.51093e-05
3.3184e-10
8.73511e-10
1.30087e-10
1.67678e-11
3.7568e-12
2.78421e-12
0.412997
0.121535
0.150545
0.000929686
0.000345155
0.000365755
0.000383982
0.000205559
9.68333e-05
0.000109055
0.00017261
0.00225625
0.00230312
0.00230312
0.000274625
2.77693e-06
3.50762e-10
7.75079e-10
1.35281e-10
3.65172e-11
3.23097e-12
6.3546e-13
1.91222e-13
0.416765
0.167518
0.079236
0.00029294
0.000312123
0.000530184
0.00418778
0.00443594
0.00482685
0.00232949
0.000163723
2.3195e-05
1.3407e-07
0.00152166
2.16498e-09
4.05896e-10
3.73776e-10
3.17286e-10
2.03661e-11
3.59946e-12
7.51444e-13
1.02496e-13
1.70854e-14
0.288567
0.296133
0.0788243
0.000225553
0.000219276
0.000170173
0.00016919
0.000172002
0.000197747
0.00264018
0.0133025
0.00502324
1.0712e-08
9.24319e-09
4.4112e-07
1.77245e-08
2.62126e-12
1.35354e-11
2.19511e-12
4.95162e-13
7.74871e-14
9.96585e-15
1.17234e-15
0.0394978
0.319957
0.0110779
0.000223495
0.000174825
0.000168462
0.000168282
0.000168954
0.000436928
0.000248556
0.000122789
0.0178137
6.70123e-07
6.85898e-09
5.87771e-08
2.30816e-08
2.53996e-12
1.82677e-12
1.61685e-13
2.82173e-14
4.73142e-15
5.89295e-16
6.35385e-17
0.0393333
0.319111
0.000426797
0.000606403
0.000628812
0.000168145
0.000168133
0.000169758
0.00067925
0.00067925
0.000187243
7.46882e-05
0.0148133
-1.70064e-10
2.0071e-12
1.70234e-12
1.77401e-12
2.24745e-12
5.11302e-13
7.61782e-16
1.5459e-16
2.91077e-17
1.4352e-17
0.0457716
0.174532
0.000406083
0.000396753
0.000666569
0.000602748
0.000451298
0.000670596
0.000675864
0.000677097
0.000110607
7.38882e-05
0.0171726
1.54831e-06
3.51987e-12
5.09042e-12
1.3275e-11
5.87379e-11
3.89138e-10
4.53865e-14
1.17837e-17
2.29493e-17
3.38074e-16
0.0337895
0.0364863
0.000389529
0.000382088
0.000432606
0.000660025
0.000668486
0.000619899
0.000477054
0.000324135
0.000128639
7.44676e-05
0.00200374
0.000489275
3.55757e-12
1.39554e-11
7.29492e-09
5.23724e-08
3.75702e-07
1.24246e-11
-2.86033e-15
6.50132e-17
8.82174e-15
0.0505365
0.0506042
0.0146855
0.000971577
0.000337259
0.00034086
0.000336344
0.000336514
0.000644388
0.014513
0.00628259
9.42582e-05
0.00345061
7.59645e-11
1.03692e-11
1.92126e-09
5.56989e-07
0.000970266
0.00257434
1.35129e-07
9.18933e-13
8.82519e-17
2.41414e-14
0.00449704
0.00218402
0.161711
0.00515091
0.00690718
0.000867275
0.000648809
0.00937907
0.00789675
0.0148223
0.00739501
9.35116e-05
0.000111171
0.00671853
1.61659e-09
0.000867126
0.000946444
0.000835155
0.00570321
0.00239017
1.83758e-08
1.1427e-16
4.85227e-14
0.0039984
0.0012622
0.163228
0.165486
0.0257131
0.0117594
0.0137657
1.3501e-05
5.80654e-05
0.00793305
0.0110672
7.96471e-05
8.00022e-05
0.00654779
0.000549015
0.00146021
2.17169e-05
0.0045712
0.00570319
0.00570344
1.12533e-08
1.87484e-16
9.65821e-14
0.00192013
0.00113072
0.0218369
0.0205057
0.0274898
2.45963e-05
3.05351e-05
1.26131e-05
0.000185989
0.0190619
0.018345
7.92814e-05
7.92814e-05
0.00719567
0.000658603
0.00020089
2.17162e-05
0.0056196
0.00569258
0.000831288
4.54407e-11
5.03188e-16
2.05568e-13
0.0270064
0.00142844
0.00159669
0.00057915
0.0164238
4.59019e-05
3.58619e-05
1.94871e-05
4.95802e-05
9.71426e-05
0.00109111
0.0023475
0.00504104
0.000510976
8.66629e-05
0.000198545
9.57206e-06
3.00681e-11
3.68337e-10
5.8907e-09
8.25646e-14
1.81778e-15
2.3891e-13
0.209554
0.000421233
0.000421418
0.000417098
0.0220961
1.63266e-05
2.12026e-05
0.000686226
0.000753772
0.000757966
0.000753757
0.000634061
0.000222018
9.94874e-05
0.000104075
-1.56956e-11
7.49012e-11
1.35488e-09
8.28864e-10
3.53684e-13
7.23447e-16
1.5738e-15
2.66821e-13
0.139916
0.000599347
0.000414999
0.000412839
0.0219164
1.63266e-05
3.29686e-05
0.000394792
8.99882e-10
2.39985e-05
7.93697e-05
1.46067e-06
3.94326e-05
1.15654e-08
1.19139e-09
-1.26076e-11
-2.40489e-12
-7.78868e-14
8.7235e-16
6.76807e-17
1.81235e-16
5.77716e-15
4.01412e-13
0.0183771
0.00174356
0.000416713
0.0226627
0.000162342
1.63815e-05
0.000191272
2.03684e-05
3.04364e-10
7.1425e-09
1.63739e-10
3.96863e-10
6.70846e-10
3.89206e-12
-7.57184e-14
1.28985e-13
1.89774e-14
1.25563e-15
1.20214e-16
1.29049e-17
7.33852e-17
5.19484e-15
5.6525e-13
0.0324433
0.000971417
0.0233446
0.0150554
1.59391e-05
2.11716e-05
0.000270263
2.84847e-11
2.69614e-11
1.10203e-11
2.98264e-12
7.34895e-13
3.02819e-13
7.17424e-15
3.71078e-15
4.59601e-16
7.4449e-17
1.08394e-17
8.84056e-19
2.19942e-19
9.42767e-18
7.42818e-16
1.1981e-13
0.0182822
0.00409283
0.0176015
2.83179e-05
9.70164e-06
0.000194311
0.000245969
2.98623e-11
4.84974e-11
3.92912e-11
1.2187e-11
3.39557e-12
2.77275e-13
6.64347e-14
-6.58294e-14
1.20512e-14
5.10445e-19
3.32986e-20
2.77092e-21
9.56607e-21
9.92469e-19
1.1327e-16
3.34582e-14
0.00531702
0.147316
0.000917674
0.000174217
6.56202e-06
5.38309e-06
5.47354e-08
1.44909e-08
3.50343e-11
5.12744e-11
1.25645e-10
8.26738e-10
1.96083e-10
-6.69303e-11
-3.79397e-12
3.17494e-13
3.38345e-16
3.66803e-19
7.35597e-23
1.80382e-23
4.0484e-21
6.17049e-19
5.60601e-16
0.0098862
0.132337
0.00488895
0.0129333
0.00731392
1.28532e-05
5.74182e-08
2.99021e-08
1.08696e-07
2.14087e-05
0.000294827
3.55018e-06
1.75088e-07
5.11466e-09
-6.63379e-15
5.01472e-12
3.8143e-13
7.1989e-16
2.61397e-19
1.09731e-23
1.67078e-23
4.02226e-21
3.11214e-18
0.0138871
0.121302
0.00855895
0.0109764
0.0125547
0.0158921
0.00160193
1.93841e-07
9.36413e-05
0.00030441
0.000171704
0.000300796
0.000299393
7.72451e-05
7.49259e-11
5.45606e-12
3.9664e-12
6.35098e-15
8.83537e-18
5.11101e-22
9.97272e-26
2.18058e-23
5.675e-20
0.0134352
0.00065595
0.117247
0.00173487
0.00111731
0.0110392
0.01606
3.36792e-06
0.000263818
3.21761e-05
1.5719e-05
2.099e-05
0.000295438
0.000266901
7.5908e-09
-1.06965e-11
4.08365e-12
1.25409e-14
1.82903e-17
1.29536e-21
2.7818e-26
5.03208e-27
1.68899e-22
0.0173792
0.000299699
0.0975675
0.00171966
0.000925975
0.0009519
0.0150044
1.31759e-05
0.00108251
4.83604e-06
7.37233e-06
0.000290796
0.000164416
5.37776e-05
3.43496e-07
-1.88896e-11
3.39401e-13
3.08671e-14
7.5535e-18
6.90665e-22
1.35119e-26
4.25148e-30
9.2269e-26
0.0173792
0.00197955
0.00183106
0.0528706
0.00082933
0.000770432
0.0150044
4.85209e-05
0.00114583
6.27156e-05
4.73885e-07
0.000355764
0.000350827
4.09893e-05
1.07741e-05
-1.09961e-08
2.38726e-14
1.99063e-14
2.96112e-19
2.75238e-23
6.36657e-28
2.93536e-33
4.86492e-29
0.0177899
0.00188566
0.00214479
0.0170641
0.00110474
0.000745797
0.012675
9.47462e-05
0.00115914
8.41907e-05
2.2741e-07
2.2625e-07
0.000192063
3.75592e-05
0.00169445
3.19541e-08
-6.31757e-23
8.14827e-15
4.92187e-21
1.19784e-25
4.37572e-30
-1.74705e-33
3.32987e-32
0.0178056
0.00198325
0.0160562
0.00576931
0.000773628
0.000745796
0.0146656
0.000552291
0.00116089
0.00115901
2.2714e-07
2.26372e-07
2.58423e-07
3.07943e-05
0.00172665
5.10073e-05
-3.66263e-15
6.87181e-17
4.46131e-22
4.18639e-29
-1.07041e-31
-2.14159e-33
5.2999e-35
0.00406783
0.00549769
0.0164804
0.0167153
0.0129403
0.00405409
0.0147034
0.000442831
0.00111419
0.00084013
6.04331e-07
2.28648e-07
2.44841e-07
0.00173272
0.00166263
2.65331e-09
-5.43218e-15
5.27342e-21
6.77158e-23
2.36596e-30
-1.76688e-32
-4.1515e-34
-2.91837e-54
0.00991244
0.00483768
0.00238435
0.0169152
0.0168108
0.0159648
0.0030766
0.000137427
2.03771e-05
2.22247e-05
7.13628e-07
3.62749e-07
1.5686e-06
0.0014185
1.8014e-06
2.33865e-11
1.93847e-14
-1.9371e-21
1.36903e-25
3.24476e-33
4.01259e-39
-5.74867e-40
-2.96314e-38
0.0015246
0.00625997
0.000621291
0.0169178
0.0169178
0.0048541
3.96293e-05
8.02518e-06
7.01548e-06
2.77956e-05
1.75749e-06
4.94202e-05
3.79023e-05
0.000333459
2.48704e-07
5.17146e-13
9.77547e-15
-6.98424e-25
-3.06914e-33
-1.64127e-37
-9.32401e-44
-3.33058e-43
-5.7079e-41
0.933841
0.946223
0.946493
0.945701
0.970381
0.203812
0.409726
0.392141
0.746316
0.503205
0.0713021
0.42006
0.0463589
0.0988297
0.0262392
0.000239317
0.0150533
0.0538919
6.66286e-05
6.6871e-05
0.01182
6.66259e-05
6.66264e-05
6.67736e-05
7.14045e-05
0.000104339
6.67235e-05
6.79061e-05
5.66186e-05
0.000181792
5.48561e-05
0.000307589
5.19289e-05
5.20169e-05
5.23238e-05
0.000670959
0.000745171
0.00106478
0.00175889
9.94541e-05
0.00114875
0.000166225
5.97213e-11
4.68908e-10
4.84549e-11
4.87291e-11
4.75392e-11
2.61804e-11
1.71294e-10
1.33352e-10
7.93609e-11
4.41165e-11
2.66132e-12
2.21502e-12
1.58099e-12
1.17568e-12
1.29981e-13
1.12261e-13
9.90314e-14
9.2792e-14
7.70862e-15
6.33183e-15
5.44186e-15
4.96656e-15
3.26828e-16
2.58016e-16
2.43823e-16
2.92926e-16
1.96238e-17
1.8739e-17
2.82699e-17
4.84379e-17
1.30083e-17
1.85549e-17
1.25512e-16
5.13193e-16
2.97593e-16
2.39919e-16
1.22476e-15
5.61062e-15
7.8959e-14
7.80496e-14
5.15027e-14
1.27544e-13
1.00059e-12
5.84786e-12
9.08966e-12
7.9282e-12
1.99504e-12
3.16792e-11
8.75864e-11
2.15895e-10
7.40936e-12
3.81722e-11
1.60594e-09
1.38471e-07
1.13361e-11
5.15471e-11
2.82793e-10
5.04322e-08
4.59909e-12
1.19466e-11
3.79709e-11
2.88767e-11
5.9546e-12
1.34256e-11
1.65634e-11
1.76574e-11
9.20575e-12
4.98728e-11
1.24005e-10
8.24594e-11
1.33288e-11
3.90642e-11
7.51879e-11
1.94542e-09
6.28544e-12
3.09077e-11
5.70473e-11
5.10328e-09
4.70929e-12
6.93803e-11
1.46973e-10
6.49763e-11
1.42464e-13
4.17558e-12
1.57293e-11
1.73767e-11
3.6117e-16
1.22886e-14
3.30499e-13
1.49529e-12
4.03407e-17
9.27979e-16
2.42334e-15
3.6463e-15
5.33099e-21
5.31159e-18
9.00684e-17
2.21143e-16
6.03027e-25
1.22557e-21
5.45979e-19
4.07727e-18
7.41041e-28
2.50605e-25
1.30382e-21
4.82565e-20
1.54552e-30
6.41745e-28
3.53064e-24
3.1299e-22
5.23758e-33
3.76677e-30
5.96368e-26
9.38137e-25
1.48477e-36
2.76033e-33
2.16176e-28
-6.89839e-27
-3.69967e-37
-1.16872e-51
4.38742e-32
-1.38505e-29
-4.6266e-39
-2.92179e-37
-4.16165e-35
-3.56985e-33
0.69829
0.245181
0.849391
0.950881
0.950881
0.173499
0.0663087
0.932358
0.553861
0.197325
0.129596
0.0801799
0.416105
0.56438
0.0530023
0.0531716
0.80103
0.907662
0.695454
0.134426
0.0116951
0.0117704
0.648479
0.740594
0.223595
0.286782
0.715026
0.0111471
0.198841
0.19942
0.00107699
0.00129491
0.531312
0.791616
0.583854
0.907682
0.854076
0.162102
0.474411
0.115312
0.0114494
0.0240849
0.763843
0.0409087
0.219213
0.775387
0.00887836
0.00362171
0.0663628
0.000877823
0.00150416
6.18829e-05
0.0614094
0.694008
0.340995
0.000971467
0.184133
0.284165
0.495004
0.17695
0.0118212
0.51599
0.613954
0.285888
0.775387
0.622273
0.0033652
0.00424371
0.00265514
0.00036827
5.42853e-05
0.000305158
0.000753748
0.000322429
0.000380369
0.000481384
7.05304e-05
0.0466911
0.535209
0.297706
0.188747
0.735086
0.634816
0.105227
0.620332
0.00333473
0.00335908
0.0296723
4.31198e-05
0.000216617
0.000198058
0.000162011
0.000942913
0.0010209
0.00131032
6.91946e-05
0.000126371
0.000195341
0.558156
0.572966
0.558395
0.396102
0.00890825
0.0511404
0.0277074
0.046639
0.0436201
0.00155134
5.04153e-05
0.000580694
0.000619982
0.00427897
0.00435573
0.00103342
0.000449337
0.000502865
4.03843e-06
0.00632349
0.0200954
0.0155449
0.000141612
2.4194e-05
0.0181287
0.00655501
0.000777585
0.0234374
0.000429163
8.01775e-06
3.37949e-06
0.00085254
7.5745e-06
0.00388655
0.00251142
0.000545016
8.68357e-09
8.15777e-09
9.91579e-09
0.000258826
7.95501e-07
5.25731e-07
2.6135e-06
0.00046948
0.000881501
0.000102072
0.0140116
0.0332622
0.000601623
2.22643e-06
2.3911e-06
1.09684e-05
0.000104318
6.61114e-05
8.71088e-05
9.2672e-09
7.62609e-09
4.41826e-08
6.06837e-08
1.91426e-08
2.65274e-08
0.00174288
0.00298244
0.000120355
0.017606
0.0881155
0.0357606
2.00823e-06
2.22877e-06
1.77141e-05
0.002386
0.0023719
6.63194e-05
3.43576e-07
5.9813e-06
6.88018e-09
8.39995e-09
2.88572e-08
2.25062e-08
1.91862e-08
1.96746e-05
0.00261288
0.000436819
0.0206286
0.0336374
1.55792e-06
1.55955e-06
1.97443e-06
0.00230866
0.00236135
0.00238605
0.000115888
3.72321e-06
3.24525e-06
7.19747e-09
1.67283e-08
2.03405e-08
1.98704e-08
5.67801e-07
1.21564e-06
1.09306e-06
0.0011653
0.000100317
1.51409e-05
1.53022e-06
1.53022e-06
4.05882e-05
0.00226279
1.94857e-05
0.000175611
0.000169027
2.20549e-11
5.49461e-11
5.29727e-09
3.06028e-09
3.56239e-09
0.000118789
0.000343777
2.95137e-06
1.09284e-06
0.00276094
2.08508e-05
5.93834e-06
1.94517e-06
1.53685e-06
0.000334424
7.97788e-05
1.91804e-05
2.01245e-05
0.0016661
2.62285e-11
1.57149e-11
9.45291e-10
7.54645e-09
7.56815e-09
0.000212814
0.000314792
2.1174e-06
1.12026e-06
0.00278612
5.72544e-05
0.000442358
4.66557e-05
7.2704e-06
0.00150807
0.000314715
1.85111e-05
2.13823e-05
0.00166588
1.06526e-12
3.13694e-12
8.53981e-11
4.61975e-09
2.77653e-09
3.15874e-06
0.000344608
2.70648e-06
4.83299e-05
0.00279247
0.00245081
0.000161995
2.95525e-05
5.79363e-06
7.3561e-05
1.43751e-05
1.6261e-05
1.95665e-05
0.00164981
9.57288e-14
2.81124e-12
2.08122e-11
9.98748e-11
3.43466e-10
1.91529e-09
0.000222435
0.000284368
1.85294e-05
0.000206335
0.000120076
3.57675e-06
3.45785e-06
0.000804081
3.72525e-05
1.41425e-05
0.000658346
2.06598e-05
8.35164e-05
4.79624e-15
5.53223e-14
6.64978e-12
4.02424e-11
5.0738e-11
5.10235e-11
9.35318e-11
4.35863e-05
0.000352771
1.19537e-05
4.32428e-06
3.45625e-06
0.000944607
0.000661809
8.33612e-06
1.15615e-05
0.00132207
6.34648e-05
0.00116624
7.3574e-16
3.1417e-15
1.99147e-13
5.85929e-12
3.03006e-11
6.66631e-11
9.10506e-11
9.71468e-11
1.14063e-06
0.000149368
0.000281087
0.000686841
0.000252783
1.46567e-06
4.65987e-06
0.00132144
0.00132328
0.000628255
5.38203e-05
1.38631e-15
8.59367e-14
2.65171e-12
1.57452e-11
4.22456e-11
9.90676e-11
1.97065e-10
1.51857e-09
1.89133e-08
3.35303e-08
1.22472e-08
5.05544e-09
3.32267e-09
7.39481e-07
0.00128821
0.00131578
0.000598811
0.00134096
3.57274e-05
3.35012e-14
1.74376e-12
1.99011e-11
5.09984e-11
6.88881e-11
2.01799e-10
1.0647e-08
2.98195e-07
9.61417e-07
4.10589e-07
7.46288e-09
4.6807e-08
3.28328e-09
0.00132812
0.00109573
5.45516e-05
5.87473e-05
0.00133072
0.0010893
3.89655e-13
9.46631e-12
4.6678e-11
6.09381e-11
2.25581e-10
3.71474e-08
6.96839e-05
0.00130815
0.001441
0.000944878
3.43769e-07
1.73716e-07
1.64913e-05
0.00120736
5.3556e-05
5.3556e-05
0.00104818
0.000380852
0.00032847
3.07649e-12
1.13195e-11
3.63308e-11
8.53549e-08
2.32438e-08
9.03743e-05
0.00142003
0.00143364
0.00144051
0.0014404
6.58719e-07
1.25181e-07
0.000705362
0.000216142
0.000151378
0.00025671
0.0010765
0.000346491
0.000182321
1.66332e-11
3.67149e-10
3.1353e-09
3.56685e-06
4.65178e-05
0.00137781
0.00039719
7.15615e-06
0.00101391
0.000389961
6.35386e-07
3.4996e-07
1.57178e-07
0.000793793
5.64598e-05
5.69896e-05
0.000697148
0.00101984
0.000209104
3.67746e-07
1.42424e-05
1.16922e-08
6.87306e-06
0.000847039
0.000415149
1.06619e-05
1.32212e-05
3.67393e-06
0.000723403
7.99299e-07
1.71829e-06
1.4604e-07
0.000810889
5.64598e-05
0.00119123
0.000167807
0.0010009
2.9397e-05
8.26727e-05
0.00125484
0.000251143
1.72148e-06
0.00105387
3.28975e-06
4.25106e-05
3.82258e-05
5.98869e-07
0.000505551
0.000689744
1.49456e-07
1.45837e-07
8.27212e-05
0.00124338
0.00124384
0.00124296
0.000498376
1.94581e-06
1.10975e-05
0.00124503
0.00122934
2.11382e-05
0.000523984
2.63132e-06
3.89659e-05
4.37615e-06
3.99422e-07
4.62003e-08
0.000654072
0.000289845
3.53499e-07
1.44789e-06
4.62994e-06
0.000607253
0.000437262
0.000172945
1.11465e-06
1.89534e-10
3.52028e-09
0.000845404
0.00110134
0.000113863
2.63132e-06
4.24889e-05
0.000745803
2.13732e-05
9.00416e-10
2.56344e-09
0.000548548
0.000823254
0.000842524
0.000809179
1.327e-06
5.46462e-07
5.38029e-07
5.38029e-07
2.70973e-11
2.24672e-09
1.59515e-06
0.000860962
0.000861182
2.8123e-06
0.00054691
0.000488902
2.21062e-05
8.59756e-10
1.56082e-10
1.02613e-11
2.63752e-11
0.000283309
0.000860138
0.000404133
6.73455e-07
5.38748e-07
5.88339e-05
3.39736e-09
9.20206e-05
0.00027322
0.000120606
0.000817333
0.000845732
0.000709127
6.71865e-07
5.45444e-10
5.02046e-09
1.62164e-09
1.12291e-11
4.95649e-12
7.50448e-11
1.91475e-07
0.000826904
0.000711899
5.18205e-06
5.86681e-05
2.93083e-07
0.000272571
0.000106198
6.23336e-07
3.87053e-08
4.6135e-05
4.14715e-08
4.41234e-08
8.78085e-10
5.95766e-09
1.68313e-11
3.13766e-11
4.47521e-12
9.10008e-13
1.2095e-10
1.86292e-05
0.000812041
4.65868e-05
0.000901511
5.81654e-08
7.87047e-09
3.06116e-06
1.79462e-06
2.36938e-08
3.09378e-07
7.96868e-08
3.72548e-10
3.11352e-10
4.51981e-10
1.65467e-11
1.75854e-11
2.28627e-12
8.09764e-13
1.67655e-12
1.3078e-11
1.17937e-09
0.000314411
0.000127156
9.62228e-11
4.84091e-07
2.59459e-05
1.64578e-05
1.85646e-08
5.83335e-07
0.000119028
5.61844e-07
4.26611e-13
4.32265e-11
2.22711e-11
9.03293e-13
2.39408e-13
1.24318e-13
2.32997e-11
4.44402e-11
3.61992e-08
4.55007e-07
4.88475e-06
1.01161e-11
1.64731e-11
2.46093e-05
1.78941e-05
1.61744e-08
1.57208e-08
0.000122217
0.000122217
4.61094e-15
1.82198e-11
3.20806e-12
3.62998e-14
1.29735e-14
4.40174e-15
1.49002e-12
1.94729e-10
6.86581e-09
-2.11524e-14
-3.08876e-14
2.93862e-12
3.81716e-12
7.96372e-12
3.70179e-11
6.28142e-07
1.5721e-08
3.29738e-06
0.000121992
1.60918e-17
3.88941e-13
2.94414e-14
6.82243e-16
3.47267e-16
1.42045e-16
1.10134e-13
4.16623e-13
1.94425e-12
-3.17518e-14
-1.94231e-14
5.7139e-14
1.77895e-12
1.13785e-09
8.09177e-10
8.11076e-10
3.66878e-07
9.96409e-08
6.17087e-05
9.0197e-35
1.28638e-15
2.07482e-16
1.49098e-17
4.87765e-18
2.02664e-18
-6.01753e-17
-8.73423e-16
-4.52544e-15
-1.00058e-14
-6.38446e-15
2.76599e-16
1.83384e-15
1.38529e-10
1.89383e-10
8.27643e-10
1.61967e-06
2.79604e-08
-9.30584e-17
-4.47171e-18
1.86194e-18
1.47827e-18
1.47924e-19
3.93064e-20
-2.13931e-19
-1.13263e-17
-1.30036e-16
-7.72512e-16
-2.18481e-15
-1.36397e-15
9.48415e-18
1.10729e-15
1.24772e-16
2.48348e-12
7.47358e-09
1.27904e-11
0
-2.29083e-16
-6.18728e-18
-2.24894e-21
-1.5438e-22
1.88298e-22
7.65564e-23
-2.24785e-20
-8.67592e-19
-1.18258e-17
-8.88096e-17
-3.35492e-16
-1.86903e-16
1.37095e-19
1.3656e-19
1.2541e-18
2.58123e-13
6.12608e-09
2.95891e-11
2.72077e-16
-2.48456e-16
-5.39484e-18
-2.2099e-21
-9.05912e-23
-6.30418e-26
-5.48947e-24
-8.96392e-22
-3.63014e-20
-6.38641e-19
-6.52924e-18
-3.40673e-17
-1.63014e-17
7.43044e-22
0
-3.95085e-35
2.24015e-13
2.77093e-15
4.51308e-11
-6.30841e-17
-1.4186e-16
-2.61546e-18
-1.05249e-21
-8.99313e-24
-1.02309e-25
-1.26278e-25
-1.59352e-23
-7.86429e-22
-1.91032e-20
-2.80263e-19
-2.09464e-18
-9.0669e-19
-4.29338e-23
-6.63423e-21
-5.2157e-19
-1.06249e-17
3.24624e-17
1.33802e-12
-6.11472e-17
-4.39237e-17
-6.34859e-19
-2.63084e-22
-3.99056e-25
-1.02892e-26
-2.66429e-27
-1.14688e-25
-7.48839e-24
-2.67911e-22
-5.96928e-21
-6.71414e-20
-2.98569e-20
-1.04951e-24
-2.26265e-22
-3.11172e-20
-1.34173e-18
1.955e-18
2.57756e-14
-1.71624e-17
-6.70946e-18
-6.5202e-20
-2.64966e-23
-5.16362e-27
-2.32183e-28
-1.17184e-28
-2.31104e-28
-2.14903e-26
-1.2359e-24
-4.55833e-23
-8.34948e-22
-4.41713e-22
-3.37228e-27
-1.63163e-24
-5.25687e-22
-5.60442e-20
8.80381e-39
2.21329e-16
-5.38694e-18
-4.38476e-19
-2.17583e-21
-7.07525e-25
-7.77885e-32
-5.73238e-31
-5.62578e-31
-3.73314e-32
-5.93038e-30
-6.68821e-28
-4.81755e-26
-1.65718e-24
-1.19391e-24
-2.9773e-31
-5.84904e-28
-8.36939e-25
-3.7404e-22
-3.78577e-21
2.64872e-19
-4.82736e-19
-8.64354e-21
-1.74692e-23
-3.44295e-27
-2.08681e-36
-2.03992e-37
-4.84852e-38
-5.35067e-38
-1.83185e-35
-3.56439e-33
-3.75722e-31
-1.56775e-29
-1.0345e-30
1
1
1
1
1
1
1
1
0.999958
0.992387
0.991061
0.969496
0.99237
1
1
0.999919
0.999919
0.995417
0.998224
1
0.999998
0.999993
0.999999
1
1
1
1
1
1
1
1
1
0.965679
0.960433
0.960611
0.997028
1
0.999996
0.99984
0.999918
0.996493
0.983387
1
0.99997
0.999878
1
1
1
1
1
1
1
1
1
0.999994
0.999999
1
1
1
1
0.999982
1
0.941369
0.994146
0.901049
1
1
1
1
1
1
1
1
1
1
1
1
1
1
1
1
1
1
1
1
0.925617
0.861707
0.988987
1
1
1
0.999997
1
1
1
1
1
1
1
1
1
1
1
0.999999
1
1
1
1
0.99993
0.861617
0.999533
1
1
1
0.999998
1
0.999967
0.998716
1
1
1
1
1
1
0.99998
0.993151
0.877503
0.910307
0.999394
1
1
1
0.999066
1
1
0.999997
1
1
1
0.999903
0.993931
1
1
1
1
1
0.999952
0.674506
0.297799
0.297799
0.620913
0.962946
0.999999
1
1
1
1
0.999999
0.988129
0.983709
0.999999
1
1
0.992392
1
1
1
1
0.999985
0.621359
0.304898
0.603741
0.646503
0.464685
0.965502
0.997748
1
1
1
1
0.998931
0.918074
0.973416
0.999996
0.974587
0.979563
0.96714
0.890431
0.993499
0.991598
0.993742
0.995734
0.901951
0.328224
0.217173
0.215095
0.215069
0.306356
0.798457
0.920344
0.750149
0.791695
0.890076
0.970299
0.95463
0.503709
0.498771
0.580604
0.993996
0.822657
0.3598
0.60118
0.883361
0.962826
0.962826
0.946178
0.963417
0.893292
0.919521
0.919152
0.878245
0.93428
0.991066
0.986673
0.63951
0.825589
0.479015
0.990798
0.365992
0.667213
0.845407
0.963811
0.875076
0.899164
0.963496
0.963549
0.963548
0.918518
0.719477
0.385514
0.823469
0.992946
0.815467
0.106418
0.674732
0.971473
0.98119
0.749574
0.210352
0.794373
0.962596
0.0829945
0.0540026
0.0543086
0.0922928
0.942532
0.721385
0.385333
0.385332
0.634867
0.99252
0.354371
0.0933837
0.972322
0.991711
0.991336
0.24794
0.553195
0.958691
0.920891
0.802224
0.0534787
0.0530414
0.0529469
0.0536455
0.9072
0.898293
0.385681
0.758714
0.992537
0.0950532
0.0832458
0.962847
0.992275
0.810423
0.230243
0.944887
0.943427
0.174241
0.784207
0.742709
0.0530879
0.0542247
0.0528073
0.883813
0.898527
0.496811
0.668501
0.901083
0.918595
0.0831433
0.805914
0.660057
0.181234
0.935098
0.944887
0.866356
0.053964
0.660404
0.761575
0.156641
0.0529833
0.0530906
0.897403
0.747447
0.90292
0.668499
0.97026
0.975338
0.359052
0.879817
0.159352
0.39441
0.393026
0.944605
0.818723
0.053964
0.0844061
0.758074
0.689545
0.0528808
0.0528702
0.522805
0.837053
0.905501
0.848357
1
1
0.988088
0.995686
1
1
0.999997
0.904546
0.340055
0.593965
0.298153
0.284587
0.313463
0.317101
0.732929
0.922171
0.954084
0.999995
0.995871
0.993844
0.925932
0.998077
0.972996
1
1
0.986841
0.998284
1
0.999999
0.995524
0.556029
0.830491
0.828449
0.85328
0.857242
0.857242
0.848231
0.375982
0.375928
0.853899
0.99108
0.998577
0.999068
0.869566
0.446669
0.981303
1
1
0.998427
1
1
0.999973
0.685302
0.67227
0.832361
0.386232
0.125619
0.0265848
0.749224
0.199234
0.64387
0.565749
0.405931
0.508458
0.682955
0.591331
0.728537
0.0522872
0.1906
1
1
1
1
0.99985
0.999696
0.787969
0.454626
0.831826
0.521895
0.0163194
0.0209166
0.00129542
0.218814
0.000958277
0.000940151
0.00102252
0.0215607
0.00171068
0.00168946
0.0332913
0.0157391
0.0202171
1
1
1
0.960846
0.999311
0.999311
0.998691
0.155328
0.112804
0.141626
0.00814338
0.0354516
0.0116765
0.000832011
0.0236558
0.000986845
0.0560123
0.0595612
0.000591125
0.000371908
0.000357955
0.0129035
0.00125829
0.886856
0.900851
0.685155
0.797826
0.599037
0.527397
0.974972
0.559071
0.15026
0.0291927
0.00814338
0.00815057
0.00909197
0.000860478
0.000523595
0.014171
0.0586788
0.0160844
0.00641719
0.000313936
0.000312209
0.00962085
0.0122025
0.836882
0.92679
0.908233
0.0109982
0.0204726
0.436436
0.730434
0.388954
0.090566
0.0878298
0.0569746
0.016705
0.00829173
0.00142624
0.000351765
0.0451771
4.6656e-05
4.69117e-05
0.00336023
0.00285124
0.000312171
0.00137149
0.0011986
0.925247
0.831628
0.010527
0.00875661
0.0161902
0.0669053
0.0949256
0.0212519
0.000894733
0.00213315
0.0484837
0.00715628
0.0485251
0.000287187
0.000406915
0.0110209
4.70637e-05
0.000116952
4.57259e-05
0.00367306
0.0021598
5.71566e-05
5.2064e-05
0.948304
0.246381
0.00868898
0.00868005
0.049576
0.049332
0.00549496
0.00784419
0.000663236
0.0263567
0.000126483
0.00012312
0.0485251
0.0484582
0.000713471
0.000370769
0.000320667
0.000130749
2.67899e-05
1.80624e-07
0.000382671
5.2078e-05
5.19291e-05
0.130469
0.132817
0.00867942
0.0268809
0.0230079
0.00113698
0.000595781
0.00356021
0.000596658
0.00208499
0.00128636
0.00010889
0.000108453
0.00247829
0.000892832
0.0119701
3.08356e-07
5.46783e-09
5.5076e-09
9.39701e-08
0.000481133
0.00229091
0.0013843
0.12879
0.165166
0.00900536
0.0247388
0.000247245
0.000233168
4.01253e-05
0.000873199
0.00259615
0.000689236
0.00696211
0.000312285
0.000108631
0.000177951
0.00172356
0.00948016
1.25475e-08
1.62108e-07
4.53196e-09
4.09081e-09
6.10721e-08
0.000488698
0.00159211
0.137991
0.0971485
0.0151922
0.00188704
0.0224009
0.000455652
3.76326e-05
3.75543e-05
0.00692752
0.0409133
0.0407591
0.00480581
0.000131271
0.00117914
0.000907039
3.904e-09
3.49196e-09
4.8497e-08
9.80173e-08
2.50579e-09
1.52563e-09
1.21072e-09
7.73314e-10
0.0949162
0.262822
0.0136126
0.00247227
0.0378461
0.0382966
0.010482
0.0138683
0.0332324
0.00424832