/*--------------------------------*- C++ -*----------------------------------*\
| =========                 |                                                 |
| \\      /  F ield         | OpenFOAM: The Open Source CFD Toolbox           |
|  \\    /   O peration     | Version:  v1912                                 |
|   \\  /    A nd           | Website:  www.openfoam.com                      |
|    \\/     M anipulation  |                                                 |
\*---------------------------------------------------------------------------*/
FoamFile
{
    version     2.0;
    format      ascii;
    class       volScalarField;
    location    "0.95";
    object      p;
}
// * * * * * * * * * * * * * * * * * * * * * * * * * * * * * * * * * * * * * //

dimensions      [1 -1 -2 0 0 0 0];


internalField   nonuniform List<scalar> 
9072
(
1196.08
1217.8
1206.75
1191.13
1169.67
1142.03
1107.67
1064.82
1012.64
951.865
888.354
830.658
789.394
763.353
760.346
773.901
793.777
807.885
850.719
863.329
865.828
852.305
833.871
1139.34
1160.31
1148.52
1132.75
1111.67
1084.29
1050.13
1007.16
954.529
893.651
830.283
771.649
728.293
700.739
698.336
713.721
734.668
740.425
775.652
799.733
806.903
792.605
772.349
1082.82
1103.84
1091.31
1075.26
1054.99
1028.61
994.605
951.244
897.486
834.867
768.546
706.919
660.621
632.103
629.301
648.298
676.748
686.326
697.308
738.806
750.566
732.912
707.038
1025.98
1047.37
1034.11
1018.79
999.715
974.539
940.978
897.053
841.321
774.929
702.839
636.73
587.795
556.531
552.806
576.154
612.526
636.733
639.147
688.421
699.753
673.525
636.58
968.146
989.229
975.719
963.317
945.758
921.957
889.196
844.71
786.068
714.043
633.029
560.778
509.621
471.436
465.932
497.284
538.18
576.833
597.899
647.224
656.557
611.959
557.482
909.336
929.231
916.684
909.012
893.282
870.973
839.324
794.396
731.798
652.1
557.878
478.231
427.389
371.468
362.021
410.623
460.536
509.823
558.778
610.985
622.302
539.446
463.129
850.649
869.059
858.481
856.225
842.34
821.598
791.429
746.38
678.448
590.685
499.042
438.145
397.005
285.457
241.114
315.34
380.658
440.918
508.055
573.276
597.452
442.425
328.143
793.533
810.775
802.132
805.238
792.802
773.684
745.43
701.798
625.276
559.405
473.995
409.508
334.587
204.227
135.528
214.82
298.407
367.927
444.464
528.597
572.672
394.171
243.164
612.67
621.749
603.325
540.529
451.183
468.377
494.003
488.514
581.565
614.972
511.704
315.343
243.575
267.909
360.719
486.914
468.73
428.628
500.617
542.842
554.637
516.469
485.83
397.626
413.137
431.964
422.113
534.16
566.721
466.337
241.629
189.09
203.66
289.265
449.761
424.619
332.098
404.899
502.956
493.698
394.276
377.04
341.104
358.79
366.145
373.418
452.61
484.672
376.631
105.082
76.4014
90.0216
156.111
359.813
356.354
245.954
306.557
470.547
447.079
270.814
306.162
281.065
298.359
304.667
325.334
348.938
396.365
274.314
58.1577
21.7715
19.8068
34.4936
207.505
288.23
217.725
256.465
413.081
393.704
253.902
276.14
246.524
228.061
213.935
292.988
247.654
253.393
149.997
40.3803
12.6141
11.0026
16.2274
64.0321
215.039
194.145
221.182
344.327
361.333
257.142
277.525
250.308
164.653
154.631
213.086
168.672
93.9333
58.4424
30.518
4.98501
4.51427
10.5078
28.1024
159.921
170.001
193.519
278.751
319.752
253.503
252.533
251.323
115.232
109.111
161.157
101.118
54.4934
31.3817
24.3949
-11.3673
-1.30815
6.23801
20.6217
141.477
161.19
170.872
140.625
243.203
205.521
206.552
217.905
100.827
93.3115
118.976
67.284
59.3039
32.002
16.2729
-10.3105
-0.49369
5.64025
22.1182
124.463
146.731
137.857
693.454
740.69
735.213
741.607
730.634
713.733
689.045
643.423
585.206
518.081
436.703
370.207
304.065
140.858
40.7616
98.0097
193.172
269.132
349.29
456.287
490.66
319.597
221.635
584.808
633.592
634.408
638.492
627.345
613.463
595.752
565.004
475.975
310.48
264.662
229.091
158.774
71.5999
-11.6209
38.239
107.653
134.132
151.377
205.406
142.543
39.7304
51.2804
472.718
524.184
527.061
524.964
513.727
501.461
470.176
393.338
149.039
-29.444
78.6039
40.5283
40.805
50.0082
23.3687
41.0582
34.3171
43.2695
42.7384
31.6534
35.0144
17.2977
14.7623
353.676
406.056
403.746
394.899
383.902
377.125
340.023
195.804
24.3507
-17.866
24.3264
27.5973
17.9286
14.2727
22.0172
18.59
19.9905
23.4658
2.50261
-1.91296
0.15436
0.659056
0.871932
250.498
281.949
268.915
249.754
235.606
237.008
228.093
81.8742
18.4887
5.06994
4.97642
7.15157
10.9986
12.6919
11.4963
13.8797
16.2585
11.1914
-7.21411
-2.64491
-1.6427
-1.37354
0.689766
187.568
177.31
130.779
135.207
80.4699
60.4854
87.0208
63.6328
16.5364
2.46793
-2.30738
-0.162127
9.03701
11.669
9.42176
10.7188
9.39958
3.02927
0.871664
-0.0728961
-0.387302
-0.142207
0.518637
195.48
103.453
33.2741
40.7828
37.9471
40.1832
49.8427
44.9903
18.0575
11.1678
5.46036
6.32894
10.3909
6.47032
6.17192
7.33879
2.43843
1.76338
1.58977
0.715444
0.235206
0.310763
0.873835
188.164
145.106
40.6389
30.376
26.2894
15.0629
35.0455
28.2057
18.8059
16.3328
5.07609
8.80414
8.00371
3.24466
5.08208
1.51949
0.84546
1.76169
1.62277
1.33413
0.875453
0.709663
0.81609
92.7182
121.67
37.0487
29.8611
24.2172
21.8924
21.1312
22.2443
18.324
18.5
7.79119
7.35521
6.62119
4.80689
5.83701
3.90582
2.11378
2.00075
1.63256
1.30191
0.973994
0.898562
0.782983
29.2728
38.8603
28.6188
28.8482
24.6511
20.194
18.1364
18.4426
16.4626
14.7522
8.87668
6.93808
5.10055
3.88575
3.62482
3.88478
1.82766
1.65249
1.47747
1.26496
1.07699
0.943386
0.869425
80.3669
1.59867
25.3438
28.2987
24.3926
20.4003
18.3679
18.3303
17.5601
16.5484
12.1264
0.400273
2.29776
2.82635
2.81025
2.54692
1.59036
1.48123
1.32893
1.17314
1.04257
0.949975
0.868149
83.208
25.0344
26.304
30.0604
28.0638
17.2362
17.1482
17.8816
17.9718
15.112
1.89629
-18.1295
-3.42224
1.92646
1.96821
1.68535
1.46916
1.32131
1.18233
1.05154
0.93622
0.836464
0.745873
45.0706
51.3796
14.0673
10.8738
2.38047
6.17361
15.0239
17.0186
13.7241
1.57729
-2.54609
-4.62768
-1.83701
1.50774
1.3563
1.37997
1.26365
1.14812
1.02832
0.912212
0.805101
0.708624
0.620601
19.7642
13.4639
4.64458
2.13844
1.72282
0.634548
-3.85006
-1.73631
-1.05067
-0.792942
-2.11432
-1.8118
0.21099
1.32803
1.01695
1.13238
1.06712
0.974264
0.868065
0.761137
0.659308
0.564819
0.478017
-8.30746
-1.39134
1.33547
1.18661
0.600571
-0.104955
-2.70858
-3.0688
-2.44996
-1.80533
-1.10181
0.866598
1.44979
1.13683
0.890783
0.984292
0.905901
0.809685
0.705913
0.602529
0.503332
0.41032
0.324459
-31.9993
-43.8419
4.32735
-0.448707
-1.70892
-3.53315
-7.48963
-7.54
-4.77789
-3.17583
-0.753683
1.0625
1.4827
1.22478
1.0569
0.895486
0.765674
0.651005
0.541746
0.438128
0.339822
0.247525
0.162195
40.6169
-12.5071
-9.58046
-4.74781
-6.34116
-10.0302
-13.2273
-13.1152
-9.73095
-5.02791
-1.53745
1.13622
1.51207
1.33241
1.08025
0.801689
0.61918
0.484279
0.370886
0.267547
0.169744
0.0773866
-0.0081031
46.4563
24.7769
-16.7898
-9.86855
-12.3141
-17.4206
-20.6791
-18.791
-13.1701
-6.10106
-1.8586
0.634962
1.30574
1.10342
0.838838
0.601701
0.426741
0.296517
0.189905
0.0908666
-0.00632021
-0.0999555
-0.186698
46.385
-12.3764
-8.36362
-9.77817
-14.6751
-20.1279
-23.5253
-20.9708
-13.7394
-5.97716
-1.22165
0.421454
0.867067
0.74852
0.532557
0.334225
0.189035
0.0856412
0.00143702
-0.0885218
-0.186987
-0.284878
-0.374692
38.8431
4.51738
-1.67389
-5.90625
-10.8112
-16.4769
-19.0612
-16.6328
-11.0698
-5.20486
-1.11757
0.416905
0.806152
0.355825
0.14982
0.00564333
-0.0940181
-0.147194
-0.183088
-0.262425
-0.370977
-0.479614
-0.574938
38.73
5.06609
2.91707
-1.38539
-4.05142
-7.7536
-9.90927
-9.81035
-8.4488
-6.1942
-3.26001
-0.739386
0.147004
-0.418265
-0.338425
-0.388511
-0.440658
-0.420956
-0.344686
-0.421015
-0.564755
-0.692324
-0.793913
6.54021
5.57848
3.58548
2.8048
1.94899
-1.40992
-3.15123
-4.61109
-6.48109
-9.95824
-9.12378
-4.45672
-1.9103
-0.947478
-0.831007
-0.84173
-0.921857
-0.938285
-0.646705
-0.597369
-0.799265
-0.941922
-1.04313
-5.86643
-3.06973
-11.3127
5.73954
6.28652
1.65867
0.414012
-1.6867
-4.38775
-7.00355
-9.85603
-7.42029
-5.3983
-2.75426
-1.2437
-1.35223
-1.43416
-1.63237
-1.45996
-0.874479
-1.14159
-1.26582
-1.33854
-2.94871
-1.18603
-3.13322
6.17162
6.09305
0.365429
0.349132
-2.04538
-4.28517
-7.55489
-7.58542
-6.87576
-4.92372
-4.32729
-1.54684
-2.30594
-2.03528
-2.0577
-2.4388
-2.22547
-1.91333
-1.69972
-1.67903
-0.427954
-0.210945
-0.0678658
2.37983
2.93402
-0.0419377
-0.218722
-1.41254
-3.37389
-9.83808
-6.57442
-5.56963
-4.19883
-3.1235
-2.20635
-2.32365
-2.13903
-2.46382
-3.41529
-3.20083
-2.47774
-2.11047
-2.01259
-0.0367754
-0.187271
-0.428192
-0.764049
-0.263519
-0.0136612
-0.601021
-1.65049
-2.99827
-5.03949
-5.0545
-4.5673
-3.1022
-2.35499
-1.84433
-1.82979
-1.98412
-2.39816
-2.90832
-2.85504
-2.53996
-2.36107
-2.28213
19.4385
-0.0892269
-0.176831
-0.268109
0.205102
-0.162369
-0.908766
-1.5864
-2.2792
-3.18737
-3.55816
-3.23779
-2.75834
-2.30606
-1.92811
-1.97437
-2.17349
-2.46267
-2.67292
-2.70084
-2.62482
-2.54924
-2.50657
-4.68108
-0.11884
-0.00543599
0.0555266
0.179995
-0.294702
-0.794414
-1.32282
-1.90159
-2.54803
-2.93748
-2.92147
-2.72253
-2.47157
-2.32723
-2.34997
-2.47214
-2.63173
-2.74534
-2.78041
-2.76334
-2.73505
-2.71727
-2.3712
1.20948
0.4175
0.59503
-0.251247
-0.392498
-0.82109
-1.31295
-1.84929
-2.39011
-2.74957
-2.86879
-2.81971
-2.71413
-2.65634
-2.67572
-2.75008
-2.83949
-2.9052
-2.93418
-2.9367
-2.93016
-2.92701
4.32581
1.47838
2.3975
0.0987254
-0.291688
-0.552539
-0.988623
-1.49751
-2.01962
-2.51028
-2.86315
-3.02655
-3.04453
-3.00581
-2.98005
-2.99034
-3.02864
-3.07454
-3.11023
-3.12935
-3.13566
-3.13705
-3.14048
14.2511
6.18277
1.02805
0.117396
-0.277898
-0.711644
-1.32714
-1.85656
-2.37204
-2.83903
-3.17642
-3.34388
-3.37694
-3.35313
-3.32577
-3.31478
-3.3203
-3.33315
-3.34473
-3.35117
-3.35338
-3.35478
-3.35894
15.5953
10.433
2.72018
-0.0612521
-0.521651
-1.13889
-1.87385
-2.43234
-2.94937
-3.40693
-3.71943
-3.8547
-3.844
-3.78137
-3.7182
-3.66739
-3.63415
-3.61421
-3.60149
-3.59222
-3.58538
-3.58165
-3.5823
10.0761
11.2324
7.23354
0.440968
-1.48788
-2.06823
-2.65981
-3.26345
-3.82682
-4.3056
-4.59124
-4.65032
-4.52787
-4.34423
-4.18521
-4.06084
-3.97479
-3.91616
-3.87581
-3.84753
-3.82801
-3.81567
-3.80994
-6.05639
-0.829486
5.29729
-5.20886
-8.82389
-7.12336
-3.58075
-4.3001
-4.87257
-5.49551
-5.84809
-5.7927
-5.45585
-5.05268
-4.74923
-4.50064
-4.34142
-4.23484
-4.16202
-4.11151
-4.07677
-4.05383
-4.04037
-15.332
-13.9176
-5.76584
-10.5131
-13.0309
-13.2649
-6.03459
-5.58734
-6.10334
-6.76951
-6.90222
-6.751
-6.38497
-5.88278
-5.40263
-4.98223
-4.72423
-4.55889
-4.44928
-4.37527
-4.32519
-4.29199
-4.27129
-14.1159
-15.2173
-15.2917
-13.409
-15.3979
-15.48
-9.95347
-7.06225
-7.45003
-7.86656
-7.84878
-7.52234
-7.08027
-6.69093
-6.17354
-5.47586
-5.08754
-4.86085
-4.71936
-4.62749
-4.56666
-4.52641
-4.50048
-14.1043
-15.3041
-15.7049
-16.4086
-16.0981
-15.7026
-10.8162
-8.44104
-8.79464
-8.88557
-8.5886
-8.14375
-7.59133
-7.40276
-7.08539
-5.90586
-5.36693
-5.10996
-4.95878
-4.86252
-4.79868
-4.75562
-4.72679
-15.1658
-15.7944
-17.141
-17.499
-15.1324
-14.5972
-11.5475
-8.99828
-9.93899
-10.1922
-9.44947
-8.66125
-7.91479
-7.5801
-7.39734
-6.03388
-5.53672
-5.31134
-5.1749
-5.08518
-5.02354
-4.98029
-4.95
-14.3669
-16.1472
-18.8335
-17.9488
-14.1017
-13.8329
-11.3509
-8.73531
-10.4541
-11.2475
-9.99176
-8.99261
-8.21254
-7.62935
-6.80383
-6.00593
-5.67169
-5.49682
-5.38166
-5.30165
-5.24388
-5.20144
-5.17031
-14.6416
-15.3321
-15.8506
-15.7354
-12.2729
-11.7759
-8.96595
-8.60794
-9.44589
-10.517
-9.53975
-8.74989
-8.23925
-7.36811
-6.32538
-6.00218
-5.79453
-5.6709
-5.58104
-5.51301
-5.46033
-5.41938
-5.38779
-12.5768
-13.7159
-14.3757
-17.1207
-13.9504
-8.21805
-6.81216
-7.11212
-7.48067
-8.21302
-8.20887
-7.89406
-7.4743
-6.43041
-6.06882
-5.97867
-5.90094
-5.83649
-5.77689
-5.72236
-5.67495
-5.63536
-5.60323
-10.5343
-15.5142
-13.0057
-24.0982
-23.2311
-7.95312
-6.15995
-6.15287
-6.21802
-6.60218
-6.74291
-6.66801
-6.36797
-5.65491
-5.91764
-5.89536
-5.99772
-6.00882
-5.97606
-5.93124
-5.88689
-5.84753
-5.8144
323.18
382.242
433.828
358.661
128.469
122.875
109.642
88.3108
33.4838
43.8565
36.89
28.6502
2.67713
1.82537
1.98392
2.25799
0.720568
2.13603
1.28928
1.24057
0.879974
0.935789
0.972021
0.987917
0.715081
0.66224
0.673931
0.737175
0.679004
0.576039
0.537672
0.596001
0.734726
0.670301
0.62862
0.657447
0.86088
0.812285
0.762371
0.736914
0.780687
0.73734
0.71572
0.694753
0.674299
0.642854
0.613747
0.586235
0.551366
0.516972
0.484799
0.454642
0.409407
0.374707
0.341887
0.31082
0.256414
0.22188
0.189083
0.157904
0.0945928
0.0602778
0.0277246
-0.00313375
-0.0755764
-0.109723
-0.141957
-0.172305
-0.254489
-0.28851
-0.320383
-0.350151
-0.443271
-0.477122
-0.508472
-0.537472
-0.644237
-0.67744
-0.707607
-0.735144
-0.861818
-0.892751
-0.919902
-0.944053
-1.10345
-1.12874
-1.14941
-1.16617
-1.37962
-1.39571
-1.40646
-1.4115
-1.69159
-1.70216
-1.71434
-1.73062
-2.00246
-2.01339
-2.03867
-2.08917
-2.26562
-2.27049
-2.28494
-2.31104
-2.49634
-2.49873
-2.5059
-2.51709
-2.71541
-2.7193
-2.72585
-2.73404
-2.93178
-2.93738
-2.94521
-2.95515
-3.14857
-3.15526
-3.16396
-3.17515
-3.36721
-3.37369
-3.38174
-3.39144
-3.58756
-3.5922
-3.59805
-3.60495
-3.81028
-3.81225
-3.81544
-3.8198
-4.03525
-4.03452
-4.03516
-4.03712
-4.26125
-4.25813
-4.25658
-4.25645
-4.48667
-4.48166
-4.47827
-4.47633
-4.71036
-4.70388
-4.69899
-4.6955
-4.9317
-4.92406
-4.91792
-4.91309
-5.15053
-5.14191
-5.13469
-5.12869
-5.36675
-5.35727
-5.34909
-5.34205
-5.58093
-5.57061
-5.56149
-5.55346
-5.79073
-5.77956
-5.76956
-5.76062
80.7884
-11.1841
35.1754
119.303
156.137
77.0374
71.7348
86.008
42.2268
54.0949
12.7145
20.0915
8.37707
4.19243
11.8149
27.0365
89.446
105.544
79.3605
-7.35671
-27.0744
-26.7148
2.62755
-1.19667
33.4861
28.5407
27.5364
16.4036
12.8456
-28.9315
4.47632
4.87078
9.01052
18.3314
26.0788
58.5075
59.8254
53.9602
-2.23465
-28.0775
-26.1037
-26.5618
-43.1075
-2.96362
-18.8477
1.37188
11.8385
9.92115
5.6944
4.78221
4.09911
3.64733
4.13339
12.9716
16.9064
13.8994
30.6839
4.28418
-13.0665
-29.5815
-26.9671
-26.5974
-2.86183
-3.28026
-17.2296
7.53875
7.99088
7.33477
4.04684
3.68873
3.27775
2.15555
-1.02276
4.09054
6.86361
7.28854
1.19525
1.69411
-3.30857
-31.633
-41.9202
28.5974
39.4182
10.9475
13.4454
6.51823
6.94866
4.22879
2.85259
2.4506
1.44263
0.402075
2.78024
4.98391
5.79588
1.01298
1.06552
0.843266
12.4403
11.2995
39.3704
11.081
2.3934
4.0521
5.37382
4.37504
3.05006
2.0889
1.67478
1.10149
0.519091
1.49039
3.15286
4.07648
0.852568
0.968689
0.970769
1.09231
1.31701
1.86458
1.38708
1.76517
1.50695
1.50914
1.36992
2.1845
2.20866
1.24266
0.864612
0.4527
1.00924
1.70889
2.83782
0.777347
0.906567
0.925961
0.907158
0.89675
1.08243
1.15692
1.32745
2.04922
1.06997
1.1218
1.32122
1.04871
0.748101
0.819922
0.78418
0.980912
1.45326
1.93791
0.772177
0.84274
0.850681
0.845582
0.903994
0.964451
0.87497
0.774259
1.92845
1.94661
1.94412
-5.52149
-0.258342
0.214074
0.520358
0.700024
0.78856
1.2402
1.55379
0.754103
0.747784
0.731603
0.723366
0.740223
0.761476
0.642523
0.316127
0.681391
1.30169
0.793939
0.105131
-0.795002
-0.434854
-0.177046
0.0730623
0.101209
0.294916
0.915535
0.671336
0.631503
0.598607
0.57621
0.569339
0.56733
0.391393
0.0764187
0.00725072
-0.36671
-0.49519
-0.677304
-1.15742
-1.10394
-0.854765
-0.44307
-0.469915
-0.449567
0.277948
0.55204
0.499464
0.45467
0.416264
0.380852
0.332787
0.0293206
-0.375149
-0.766139
-1.21911
-0.93816
-1.01183
-1.58576
-1.55172
-1.22859
-0.730308
-0.512606
-0.427491
-0.236872
0.416825
0.357441
0.30418
0.252621
0.193346
0.0978673
-0.194067
-0.667035
-1.2676
-1.92198
-1.28171
-1.25784
-1.7308
-1.67468
-1.3219
-0.81064
-0.516891
-0.451084
-0.613479
0.271534
0.20895
0.151613
0.0945524
0.0282908
-0.0666999
-0.259376
-0.631625
-1.24149
-1.77452
-0.869735
-1.17085
-1.60665
-1.53641
-1.19413
-0.8888
-0.553204
-0.458494
-0.59417
0.118374
0.0554206
-0.00168292
-0.056517
-0.114838
-0.184946
-0.27849
-0.416923
-0.567108
-0.592564
-0.414182
-0.748604
-1.27174
-1.25983
-1.12502
-0.915981
-0.554067
-0.406958
-0.470851
-0.0421081
-0.103433
-0.157227
-0.205071
-0.248764
-0.289316
-0.32255
-0.329062
-0.274581
-0.107473
-0.153608
-0.490097
-0.894855
-1.08704
-1.07696
-0.935432
-0.573794
-0.421318
-0.466021
-0.210328
-0.269002
-0.318105
-0.357348
-0.385442
-0.399223
-0.392094
-0.357838
-0.306798
-0.302981
-0.42728
-0.674371
-0.896154
-1.00296
-1.07973
-1.02048
-0.723759
-0.471659
-0.629429
-0.387097
-0.442956
-0.487628
-0.519279
-0.53436
-0.527209
-0.49175
-0.437606
-0.42019
-0.523814
-0.692732
-0.823724
-0.903789
-0.984309
-1.23232
-1.34977
-1.11468
-0.563925
-0.885702
-0.573161
-0.626536
-0.668436
-0.695714
-0.703219
-0.682943
-0.625545
-0.549388
-0.565483
-0.80276
-0.998849
-1.03703
-1.02324
-1.14413
-1.72681
-1.72709
-1.49727
-1.24664
-1.45416
-0.768846
-0.819884
-0.861943
-0.889845
-0.897742
-0.879079
-0.821984
-0.78446
-0.9215
-1.38692
-1.44733
-1.32274
-1.2495
-1.58662
-1.9479
-1.96157
-1.97288
-1.94915
-1.76712
-0.9735
-1.02066
-1.06763
-1.1011
-1.11971
-1.11833
-1.19503
-1.30566
-1.47875
-2.14183
-1.9403
-1.6576
-1.63652
-1.74858
-1.97974
-2.13527
-2.39072
-2.4498
-2.04243
-1.18576
-1.22176
-1.28575
-1.33102
-1.3574
-1.45283
-1.63348
-1.71498
-1.839
-2.23084
-2.096
-1.88148
-1.78837
-1.84767
-2.03248
-2.28166
-2.59241
-2.64999
-2.28564
-1.41598
-1.41678
-1.53959
-1.59037
-1.63748
-1.82818
-1.86084
-1.92137
-2.01429
-2.1563
-2.12675
-2.01254
-1.96026
-2.00112
-2.11672
-2.41425
-2.73195
-2.73286
-2.37671
-1.76117
-1.78192
-1.83872
-1.87888
-1.98533
-2.1067
-2.13179
-2.13169
-2.17611
-2.23224
-2.21994
-2.13368
-2.08998
-2.16087
-2.21355
-2.6823
-2.95485
-2.6935
-2.36427
-2.20258
-2.24825
-2.12213
-2.11115
-2.29349
-2.41184
-2.43876
-2.32419
-2.34858
-2.37263
-2.3673
-2.27222
-2.19007
-2.21525
-2.40068
-2.71494
-2.90992
-2.63741
-2.34705
-2.36495
-2.43813
-2.40657
-2.30371
-2.47089
-2.60756
-2.65049
-2.50944
-2.53499
-2.55171
-2.55631
-2.53613
-2.4585
-2.43695
-2.6234
-2.80255
-2.83853
-2.72612
-2.54422
-2.5369
-2.58075
-2.61844
-2.64101
-2.63861
-2.65454
-2.70014
-2.73738
-2.73851
-2.75018
-2.76046
-2.77353
-2.79601
-2.8273
-2.92713
-2.99537
-3.03611
-2.97122
-2.86993
-2.74732
-2.77073
-2.84259
-2.89981
-2.90872
-2.85802
-2.90667
-2.93625
-2.9415
-2.9519
-2.96488
-2.98252
-3.00902
-3.05405
-3.13359
-3.2131
-3.24766
-3.18062
-3.11172
-2.9703
-3.00843
-3.08286
-3.12662
-3.11396
-3.12145
-3.12866
-3.13204
-3.14056
-3.15187
-3.16606
-3.18464
-3.21002
-3.2462
-3.29749
-3.36522
-3.39425
-3.31393
-3.28014
-3.19071
-3.2326
-3.28119
-3.32664
-3.34538
-3.34922
-3.33497
-3.33013
-3.33826
-3.34993
-3.36406
-3.3814
-3.40295
-3.42934
-3.45961
-3.48895
-3.49289
-3.44834
-3.4965
-3.40592
-3.44339
-3.49301
-3.54923
-3.60266
-3.61333
-3.5671
-3.53012
-3.53608
-3.54709
-3.56008
-3.57513
-3.59245
-3.61169
-3.63109
-3.64654
-3.64955
-3.64364
-3.66292
-3.61634
-3.64681
-3.69775
-3.76005
-3.82023
-3.82957
-3.7883
-3.73354
-3.73539
-3.74448
-3.75538
-3.76764
-3.78113
-3.79522
-3.80853
-3.81888
-3.82424
-3.82668
-3.83361
-3.82747
-3.84748
-3.88075
-3.92609
-3.9671
-3.97938
-3.96535
-3.93765
-3.93703
-3.94266
-3.9506
-3.95994
-3.97012
-3.98051
-3.99014
-3.99791
-4.00352
-4.00789
-4.01192
-4.0416
-4.05502
-4.07545
-4.10072
-4.12467
-4.13782
-4.14352
-4.14279
-4.13806
-4.14028
-4.14547
-4.15219
-4.15968
-4.16731
-4.17439
-4.18035
-4.18507
-4.1889
-4.19093
-4.25815
-4.26628
-4.2797
-4.29603
-4.31163
-4.32233
-4.33216
-4.33459
-4.3342
-4.33599
-4.33958
-4.34432
-4.34968
-4.35517
-4.36031
-4.3647
-4.36818
-4.37075
-4.37094
-4.47559
-4.4792
-4.48729
-4.4978
-4.50825
-4.51666
-4.5239
-4.5271
-4.52861
-4.53042
-4.53301
-4.53628
-4.53996
-4.54374
-4.54728
-4.55028
-4.55254
-4.55387
-4.55273
-4.6926
-4.6922
-4.69586
-4.70183
-4.70829
-4.71391
-4.71856
-4.72127
-4.72288
-4.72434
-4.72606
-4.72814
-4.73045
-4.73281
-4.73501
-4.73681
-4.73801
-4.73837
-4.73663
-4.9083
-4.90431
-4.90414
-4.90629
-4.90937
-4.91236
-4.91483
-4.91641
-4.91737
-4.91813
-4.91897
-4.91996
-4.92109
-4.92225
-4.9233
-4.92406
-4.92438
-4.92409
-4.92236
-5.12222
-5.11504
-5.11155
-5.11045
-5.11063
-5.11124
-5.11182
-5.11209
-5.11208
-5.11195
-5.11184
-5.11181
-5.11186
-5.11194
-5.11197
-5.11183
-5.11143
-5.1107
-5.10923
-5.3341
-5.32413
-5.31779
-5.31395
-5.31168
-5.31024
-5.30913
-5.30809
-5.30701
-5.30591
-5.30482
-5.30378
-5.30281
-5.30188
-5.30095
-5.29999
-5.29895
-5.29786
-5.29664
-5.54413
-5.53165
-5.52285
-5.51672
-5.51239
-5.50919
-5.5066
-5.50432
-5.50217
-5.50006
-5.49798
-5.49594
-5.49396
-5.49204
-5.4902
-5.48844
-5.48677
-5.48529
-5.48421
-5.75009
-5.73549
-5.72468
-5.71672
-5.71078
-5.70617
-5.70237
-5.69901
-5.69587
-5.69281
-5.68977
-5.68676
-5.68381
-5.68094
-5.67821
-5.67568
-5.67338
-5.67139
-5.67007
1222.5
1212.43
1199.81
1181.1
1156.61
1125.77
1087.4
1039.89
983.139
919.796
858.099
807.808
773.98
759.072
765.641
783.573
797.516
843.148
854.361
866.887
860.686
842.86
829.408
1164.93
1154.65
1141.3
1122.99
1098.77
1068.22
1029.83
982.04
924.712
862.154
799.392
748.389
711.868
696.559
704.461
724.12
732.416
771.762
782.839
806.743
801.826
781.79
767.654
1108.45
1097.89
1083.78
1065.78
1042.62
1012.66
974.192
925.658
866.978
801.849
736.325
681.646
643.749
627.287
636.795
661.842
682.235
694.975
716.789
749.251
744.675
718.254
701.906
1052.13
1040.73
1026.94
1009.82
988.047
958.926
920.432
870.679
809.223
739.095
668.062
610.043
569.626
550.442
562.251
592.943
630.013
633.257
663.506
698.824
690.762
650.624
631.577
994.886
981.542
970.319
955.131
934.821
906.86
868.602
817.219
751.553
673.966
594.415
533.185
488.521
462.352
479.382
517.051
560.275
581.468
624.753
657.304
641.178
577.023
555.45
936.231
920.786
914.219
901.886
883.101
856.534
818.809
765.471
693.967
605.833
513.604
452.342
399.881
355.667
384.737
435.765
485.242
532.816
588.622
623.721
595.362
484.196
472.078
877.056
860.279
859.521
850.198
832.915
807.966
771.231
715.584
636.985
541.395
465.569
419.175
349.952
241.462
275.143
349.888
410.236
473.337
543.439
595.533
548.401
340.436
378.296
818.876
801.796
806.603
799.976
784.111
761.031
726.075
668.475
589.559
521.492
436.455
379.841
273.226
152.19
159.203
261.09
332.58
404.842
486.577
565.93
517.675
266.493
301.433
615.918
646.705
561.21
499.966
453.85
486.447
485.098
525.13
611.946
576.977
409.983
261.304
249.302
297.78
450.333
491.951
445.477
448.202
507.643
535.264
567.494
496.715
438.656
396.643
430.144
416.706
466.766
561.105
547.443
334.31
198.625
193.125
225.731
388.568
461.115
371.721
341.149
442.006
489.852
454.478
370.264
355.438
349.082
366.965
364.061
406.272
456.063
485.824
192.019
80.5564
78.9768
110.062
246.268
388.748
280.815
263.651
361.549
480.111
329.883
273.103
308.695
290.703
300.982
315.002
356.042
366.256
408.424
124.777
32.5398
18.9672
23.7382
86.1736
293.366
249.233
222.462
302.466
450.549
286.961
252.467
285.06
226.089
223.776
243.119
309.431
262.906
204.667
75.7024
23.277
9.8856
13.3519
23.8413
196.094
206.485
203.095
252.067
395.385
284.421
257.026
285.341
191.444
143.82
182.319
209.062
162.302
62.3547
49.9106
9.47079
1.81538
7.37343
13.7748
108.378
169.454
189.479
208.764
332.344
264.813
255.258
267.895
159.534
99.0103
139.763
133.161
93.0423
37.9516
35.248
8.81106
-4.29964
2.19638
13.2346
45.1161
172.606
178.163
171.947
264.041
203.358
231.727
223.484
138.961
81.5503
115.623
88.7081
72.3106
40.2552
26.4984
7.78219
-12.4289
1.944
14.7181
37.5713
169.819
148.641
140.284
746.983
732.59
741.461
736.962
722.903
702.589
670.377
610.607
560.67
476.42
399.857
346.112
225.377
78.0217
43.6318
151.099
230.056
308.717
399.649
498.136
420.144
239.742
265.312
635.764
630.942
640.554
633.187
620.747
605.398
582.706
542.843
385.258
270.925
263.359
191.259
122.331
22.9732
1.32583
79.0474
124.953
139.47
178.319
196.376
77.7209
31.2021
108.916
527.276
523.564
529.718
519.275
507.878
489.761
441.447
303.468
1.31758
43.7658
55.1265
38.4316
65.8097
42.6053
34.3673
38.8387
36.1289
48.665
35.0555
34.1195
33.2636
10.437
18.695
409.506
404.16
401.294
388.883
380.319
368.772
280.335
109.926
-33.4954
2.10942
25.7698
24.1912
13.9343
21.3574
18.6681
19.0023
21.6066
17.6416
-3.37506
0.514775
-0.232504
1.0732
1.27332
287.961
275.019
260.579
239.852
234.377
238.504
180.275
34.1659
7.93978
6.6983
4.82545
10.4694
12.5626
12.207
12.7603
15.0855
15.8706
1.29665
-5.37169
-1.53077
-1.67265
0.44051
0.602895
198.977
146.338
133.365
112.938
58.2076
74.6441
88.4327
25.4205
10.73
-2.02179
-2.37579
5.16072
10.7688
10.1141
10.0037
10.8785
5.91296
1.90627
0.847586
-0.225108
-0.421849
0.418439
0.614074
155.798
48.2108
45.81
39.1664
37.5697
47.5636
51.0378
32.8549
13.454
8.06524
3.20725
10.1351
8.86359
5.40597
7.12191
5.03082
1.82794
1.67906
1.35758
0.359937
0.234747
0.811424
0.763743
191.216
69.7024
31.8601
28.7127
21.8022
20.0066
36.0518
21.9948
18.2927
12.4806
6.59222
8.90367
5.99208
4.37564
4.02804
-0.116195
1.55807
1.70914
1.50925
1.06476
0.706498
0.766827
0.759144
136.246
48.1603
33.1792
26.717
22.2279
20.9353
22.3025
19.5017
18.5116
10.9409
7.55294
6.93993
6.14781
6.36881
4.77626
2.90905
1.99392
1.83284
1.46669
1.12444
0.927014
0.821978
0.77673
61.8415
25.5248
29.7082
27.3723
21.3771
19.337
18.114
17.4397
16.3105
11.658
7.68516
6.05474
4.33927
3.674
3.90524
3.22233
1.64829
1.57584
1.37211
1.16198
1.01275
0.857865
0.887078
36.5169
17.3201
27.2277
26.5955
22.2139
19.1113
18.2202
18.2122
17.1349
15.1372
4.8755
1.16171
2.78066
2.84372
2.81513
2.00182
1.54226
1.40674
1.24976
1.10297
0.992346
0.909151
0.823655
46.0695
26.6187
25.8118
30.9632
21.7957
16.7446
17.5899
17.9957
17.4458
9.58489
-11.7928
-9.42184
0.513465
1.97677
1.84267
1.55812
1.39412
1.25106
1.11552
0.991614
0.88489
0.790209
0.703233
46.8902
29.1273
13.6645
7.00176
4.56957
9.34717
16.5932
16.564
6.6232
-1.1418
-3.89165
-3.92847
0.41911
1.45568
1.38381
1.31884
1.20682
1.08824
0.969394
0.857349
0.755662
0.663691
0.579572
21.4938
5.07907
3.4489
1.13425
1.70119
-1.83112
-3.95083
-1.04869
-0.753773
-1.3955
-2.372
-0.878706
1.05683
1.09594
1.11841
1.10541
1.02312
0.921873
0.814217
0.709383
0.6111
0.520461
0.437587
-10.7719
-6.37715
0.877973
0.700399
0.403655
-1.2273
-3.39626
-2.7809
-2.10408
-1.52506
-0.255045
1.35717
1.37573
0.909984
0.987005
0.948002
0.859544
0.758101
0.653887
0.552252
0.455977
0.366462
0.284406
-116.052
55.2215
0.82006
-1.18776
-2.4257
-5.28966
-8.20164
-6.12277
-3.93175
-1.81619
0.207925
1.41608
1.39969
1.08304
0.992104
0.822889
0.708123
0.595606
0.489282
0.388284
0.292862
0.203937
0.122401
0.741004
6.51246
-7.28755
-5.3681
-8.05387
-11.9327
-13.6743
-11.7658
-7.31332
-3.14182
0.170907
1.44907
1.44094
1.21637
0.932686
0.700626
0.548023
0.425796
0.318381
0.218026
0.122804
0.0336932
-0.047858
38.6286
-27.4207
-10.7199
-10.8155
-14.7597
-19.6529
-20.3482
-16.381
-9.46914
-3.51317
-0.826636
1.29962
1.22747
0.974371
0.713047
0.507191
0.357411
0.241466
0.140046
0.0420321
-0.0538021
-0.144362
-0.226738
41.52
-9.539
-8.41204
-11.5699
-17.474
-22.5042
-23.0294
-17.796
-9.58862
-3.05781
-0.177237
0.439222
0.938483
0.652862
0.426799
0.255461
0.133227
0.0429928
-0.042084
-0.1372
-0.236576
-0.33109
-0.415406
36.4244
-0.138941
-4.45644
-7.53077
-14.0074
-18.2599
-18.5498
-13.9927
-8.05745
-2.78184
-0.0969591
0.629279
0.427418
0.241674
0.0720286
-0.0498814
-0.12597
-0.163137
-0.216269
-0.315032
-0.426484
-0.529274
-0.616478
18.2515
5.06522
0.497966
-2.45845
-5.98213
-9.12678
-10.0984
-9.19677
-7.35493
-4.86497
-1.81002
-0.205399
-0.18226
-0.338369
-0.35999
-0.417771
-0.443799
-0.378514
-0.355405
-0.489592
-0.631683
-0.746396
-0.835272
7.70217
8.40211
3.43208
2.56807
0.354276
-2.52568
-3.74598
-5.45222
-8.08202
-11.1521
-6.57132
-2.99817
-1.23677
-0.872334
-0.825569
-0.872865
-0.970579
-0.828528
-0.551012
-0.699049
-0.875221
-0.997444
-1.08068
-8.39409
-3.72477
2.02354
7.5675
3.39557
0.868948
-0.439085
-3.14803
-5.42406
-10.2141
-8.70742
-5.94256
-4.83135
-1.32417
-1.25853
-1.39332
-1.49729
-1.72581
-1.07327
-0.971563
-1.21147
-1.30662
-1.36435
-3.18502
-2.5137
-0.393938
9.7423
1.42088
0.980986
-0.934524
-3.05154
-5.7289
-9.59854
-7.12454
-5.69523
-4.77568
-1.97427
-1.91309
-2.25802
-1.93806
-2.36217
-2.21333
-2.16956
-1.73871
-1.68129
-1.68451
-0.43493
-0.606048
4.27455
2.67723
0.128361
-0.0307512
-0.66936
-2.35253
-4.57947
-13.7075
-5.95869
-4.81638
-3.84879
-2.33927
-2.22671
-2.26557
-2.07784
-3.17614
-3.22085
-2.94116
-2.23555
-2.04456
-2.00072
-0.109555
-0.487212
-0.863635
-1.00497
0.427485
-0.210169
-1.07576
-2.28227
-3.9531
-5.50112
-4.83027
-3.76081
-2.63105
-2.12469
-1.74094
-1.91004
-2.10374
-2.72885
-2.95275
-2.6929
-2.43705
-2.31199
-2.2675
1.23801
-0.13699
-0.388949
-0.40477
0.0854458
-0.509783
-1.23254
-1.93987
-2.69897
-3.51287
-3.48291
-2.99879
-2.49883
-2.09646
-1.92236
-2.06159
-2.312
-2.58968
-2.70908
-2.6676
-2.58367
-2.52351
-2.49771
-1.35812
0.0205444
0.0152237
0.268765
-0.179824
-0.579026
-1.044
-1.60513
-2.23325
-2.79573
-2.9676
-2.83537
-2.59302
-2.37805
-2.32136
-2.40212
-2.55264
-2.69817
-2.77189
-2.77559
-2.74874
-2.72421
-2.71456
-1.33784
0.102633
0.423733
-0.127891
-0.230097
-0.611382
-1.05744
-1.57195
-2.13063
-2.60111
-2.83616
-2.85898
-2.76613
-2.67549
-2.65729
-2.70823
-2.79575
-2.87683
-2.92401
-2.93763
-2.93362
-2.92764
-2.92873
0.317612
0.69246
1.03908
-0.182664
-0.380359
-0.746624
-1.24768
-1.75431
-2.27594
-2.70935
-2.96773
-3.04839
-3.02685
-2.98886
-2.98071
-3.00716
-3.05198
-3.09436
-3.1218
-3.13363
-3.13648
-3.13817
-3.14439
13.4999
3.61214
0.38589
-0.0649154
-0.481619
-1.00656
-1.6035
-2.11602
-2.6164
-3.02827
-3.28087
-3.37246
-3.36782
-3.33808
-3.31784
-3.31598
-3.32644
-3.33946
-3.34862
-3.35261
-3.35394
-3.3563
-3.36304
17.3788
4.24954
0.978979
-0.260309
-0.784021
-1.52419
-2.16594
-2.69471
-3.19097
-3.58467
-3.80957
-3.86196
-3.81412
-3.74899
-3.69061
-3.64872
-3.62293
-3.60725
-3.59655
-3.58848
-3.58305
-3.58133
-3.58471
11.4698
7.5481
5.15801
-1.21586
-1.71816
-2.34588
-2.97706
-3.54938
-4.08476
-4.47567
-4.6483
-4.60684
-4.43347
-4.26207
-4.11744
-4.01386
-3.94263
-3.89417
-3.86042
-3.83681
-3.821
-3.81199
-3.80949
-0.77506
7.05333
0.0251206
-7.69556
-8.48947
-4.84502
-3.99353
-4.58493
-5.18305
-5.72781
-5.8651
-5.65094
-5.24226
-4.89841
-4.61168
-4.41302
-4.28287
-4.19509
-4.13447
-4.09246
-4.064
-4.04602
-4.03668
-14.9669
-12.0713
-7.87763
-12.0113
-13.6262
-10.4042
-4.98702
-5.77108
-6.50386
-6.88353