/*--------------------------------*- C++ -*----------------------------------*\
| =========                 |                                                 |
| \\      /  F ield         | OpenFOAM: The Open Source CFD Toolbox           |
|  \\    /   O peration     | Version:  v1912                                 |
|   \\  /    A nd           | Website:  www.openfoam.com                      |
|    \\/     M anipulation  |                                                 |
\*---------------------------------------------------------------------------*/
FoamFile
{
    version     2.0;
    format      ascii;
    class       volScalarField;
    location    "0.95";
    object      p_rgh;
}
// * * * * * * * * * * * * * * * * * * * * * * * * * * * * * * * * * * * * * //

dimensions      [1 -1 -2 0 0 0 0];


internalField   nonuniform List<scalar> 
9072
(
1240.22
1232.52
1221.46
1205.85
1184.39
1156.74
1122.39
1079.54
1027.36
966.55
902.935
845.019
803.66
778.068
775.06
788.616
808.491
822.562
865.401
878.018
880.542
867.019
848.586
1242.34
1233.89
1222.1
1206.33
1185.25
1157.87
1123.71
1080.73
1028.1
966.581
900.941
842.323
800.711
774.312
771.909
787.295
807.914
813.952
848.732
873.306
880.477
866.17
845.921
1244.68
1236.27
1223.74
1207.69
1187.42
1161.04
1127.04
1083.68
1029.92
967.298
900.978
839.351
793.053
764.535
761.731
780.729
806.931
818.673
816.953
871.237
882.998
865.344
839.47
1246.7
1238.66
1225.4
1210.08
1191.01
1165.83
1132.27
1088.34
1032.61
966.219
894.13
828.021
779.085
747.821
744.097
767.445
803.764
801.624
804.073
879.712
891.044
864.816
827.87
1247.73
1239.38
1225.87
1213.47
1195.91
1172.11
1139.35
1094.86
1036.22
964.193
883.179
810.927
759.77
721.585
716.081
747.434
788.33
799.282
826.021
897.374
906.707
862.108
807.631
1247.77
1238.24
1225.52
1218.02
1202.29
1179.98
1148.33
1103.4
1040.81
961.108
866.842
768.127
701.194
672.242
671.03
719.631
769.545
818.831
867.786
919.993
931.31
848.451
772.137
1247.95
1236.93
1225.05
1222.34
1210.21
1189.47
1159.3
1114.25
1046.31
954.202
622.351
547.842
509.476
599.105
608.972
683.207
748.525
808.785
875.922
941.144
965.31
787.819
695.858
1249.69
1237.5
1228.71
1228.16
1219.53
1200.41
1172.16
1128.52
1045.8
693.468
658.541
685.539
568.643
484.252
558.001
641.54
725.132
794.653
871.189
955.322
978.83
785.972
669.888
656.508
635.818
617.764
553.448
465.2
482.997
508.59
503.166
595.959
625.907
514.991
318.523
246.751
271.085
372.007
500.457
482.239
439.666
513.999
645.129
624.915
562.599
523.741
432.153
485.506
505.092
452.407
560.679
623.718
537.203
312.47
259.018
274.226
360.155
510.58
492.266
399.433
473.448
663.693
625.069
503.529
486.288
439.937
450.164
466.8
421.015
564.813
612.308
503.692
217.769
202.161
217.631
283.721
478.731
471.423
297.075
357.715
689.415
636.991
302.249
339.605
467.724
483.542
473.007
382.89
516.873
576.984
437.484
68.7615
32.1696
32.2617
88.9473
390.775
419.312
291.562
333.619
690.575
618.852
275.503
440.494
475.382
476.19
426.547
343.659
468.95
493.106
356.049
157.352
26.1315
24.4935
29.6932
279.656
440.052
417.285
404.782
657.934
668.036
283.073
359
556.946
471.062
229.453
505.058
456.99
286.552
200.638
270.503
35.3014
21.1967
27.1188
250.259
437.612
314.5
465.864
641.002
684.633
297.303
303.61
610.269
217.169
231.77
508.748
448.709
141.473
59.0138
305.129
268.278
18.3983
26.0761
40.4583
471.899
445.27
502.428
581.049
659.386
620.818
417.894
525.217
166.752
259.249
498.14
470.068
136.551
55.6522
331.018
309.676
31.4995
28.6629
46.6133
467.752
505.105
523.75
1258.22
1242.86
1237.28
1236.36
1232.8
1215.9
1191.21
1145.55
816.357
792.206
706.125
516.845
450.73
284.307
345.392
529.595
665.554
771.3
848.115
958.386
958.269
820.162
723.004
1274.77
1260.96
1261.77
1256.59
1254.71
1240.83
1223.1
1037.78
875.269
831.604
792.367
766.719
696.665
608.636
346.449
274.474
448.828
705.069
777.595
832.312
768.563
355.644
583.241
1287.87
1276.74
1279.49
1276.35
1266.28
1254.02
1217.95
727.294
775.804
594.242
196.929
58.4206
286.48
273.336
188.091
590.454
355.905
373.721
510.283
529.908
548.021
238.478
47.4113
1294.02
1283.81
1281.49
1272.65
1261.65
1254.65
1217.12
573.55
755.447
549.561
337.47
36.7778
25.1722
16.0341
176.57
20.2915
21.6925
30.864
10.7859
0.522959
6.50271
30.8178
6.03722
1316.05
1284.9
1271.86
1199.04
1205.76
1239.28
1230.32
831.497
132.08
137.94
14.0925
28.4494
46.8665
14.5169
29.2504
15.8502
23.0357
71.8714
44.8621
-1.27753
-0.309847
5.37573
2.87258
1343.73
1121.8
997.352
921.076
1054.39
549.943
904.473
1122.84
171.031
147.284
7.94477
10.1863
19.3688
19.4412
11.0771
12.4649
75.5559
45.7731
20.9217
1.41831
1.09287
5.96016
6.78416
1370.75
1221.51
1194.95
451.524
56.2989
155.576
921.914
833.584
231.14
127.396
112.224
42.5021
21.9031
23.7109
7.81511
18.5871
53.7361
3.07504
2.91383
10.7159
1.87964
3.98282
3.75384
1554.9
1420.74
500.657
43.9817
39.9937
92.2821
155.229
119.958
37.5447
19.0308
35.1967
27.7021
76.1524
65.7485
6.84779
13.5866
2.29497
3.20848
3.09722
3.72652
7.25918
3.06195
2.26784
1567.64
1374.14
51.9829
44.3793
38.7828
108.689
39.5404
36.858
22.2157
33.9339
19.8284
9.03588
28.6195
79.1556
29.3198
6.0595
4.09542
3.64658
3.31631
2.80566
2.58321
2.55176
2.36473
1380.21
441.131
45.3798
44.5751
98.2778
22.8436
24.193
21.369
20.0137
17.352
14.5071
8.75049
6.90666
5.69099
6.31793
20.7156
20.0063
3.28167
3.10639
2.89389
2.70838
6.20796
6.12972
1344.67
447.971
43.3425
75.6614
27.1811
22.5513
20.4637
20.1528
25.2973
19.4658
19.4137
7.50586
4.25969
4.77034
6.51973
13.0639
4.65175
3.23535
3.08316
2.92726
2.79669
2.7292
4.95944
1424.73
445.169
46.1447
58.0503
42.9673
47.9307
19.1009
19.8314
19.9216
86.0203
80.5888
59.1758
-1.24733
4.04739
6.63041
3.64702
3.34847
3.20062
3.06181
2.93094
2.81553
2.71577
2.62518
187.593
604.583
28.9509
15.2813
59.662
84.3885
93.5512
36.6678
81.1799
63.6787
-0.278819
1.41713
0.460104
3.89642
6.5475
3.38524
3.27525
3.15262
3.03282
2.91671
2.8096
2.71313
2.6251
264.372
346.553
16.0942
6.45212
7.15472
3.70062
80.2645
37.8689
1.28026
1.53951
0.772545
2.24877
2.66424
5.53914
6.87834
3.26502
3.25024
3.10396
2.99776
2.89083
2.78901
2.69452
2.60771
950.169
274.637
342.714
5.53574
3.63297
2.97385
0.411283
-0.350859
0.0230602
0.69522
1.54191
8.204
8.89279
8.57982
3.7643
3.24544
3.16079
3.06458
2.96081
2.85742
2.75822
2.66521
2.57935
987.451
356.848
195.108
2.62791
1.4133
0.107557
4.84778
5.38745
9.07905
4.74311
2.01569
3.49774
3.8631
7.22294
3.437
3.27557
3.14576
3.03109
2.92183
2.81822
2.71991
2.62761
2.54228
783.45
731.154
190.205
-1.67802
-3.28708
-7.099
-10.2986
-10.1795
-6.73075
4.08516
34.2611
16.2135
4.01738
3.83771
3.58664
3.30702
3.12446
2.98956
2.87617
2.77283
2.67503
2.58267
2.49718
155.413
868.205
14.9517
-6.65076
-9.22421
-14.3475
-17.6064
-15.7165
-9.39146
-2.81742
1.09454
50.0771
3.93798
3.73392
3.46947
3.23224
3.05722
2.92699
2.82038
2.72134
2.62416
2.53052
2.44378
159.944
868.865
-4.43301
-5.35312
-10.1884
-16.9094
-20.3068
-17.7478
-9.11377
-1.35156
2.04949
3.38274
44.4025
3.50419
3.28823
3.0899
2.94471
2.84131
2.75711
2.66715
2.56869
2.4708
2.38098
176.379
509.698
2.37568
-1.88354
-6.01192
-11.8613
-14.8815
-11.822
-6.24381
-0.375312
2.08162
3.51042
53.1097
3.24115
3.03069
2.88651
2.78685
2.73367
2.69778
2.61844
2.50989
2.40125
2.30593
145.383
117.643
7.09291
2.76811
0.253783
-2.76545
-4.8957
-4.94269
-4.01011
-2.21474
0.132365
2.49031
9.1704
4.05712
2.66764
2.61755
2.56543
2.58527
2.66251
2.58505
2.44131
2.31374
2.21215
170.979
167.006
52.6548
8.97525
6.13523
2.78758
1.03214
-0.427188
-1.33412
38.5714
13.6601
-1.03062
12.0149
2.18377
2.30024
2.28952
2.21113
5.22807
10.5374
2.5343
2.33198
2.18933
2.08812
12.3635
7.29174
518.02
25.7528
32.0133
7.73652
5.78115
32.0816
24.5583
44.4725
17.4578
-3.85964
-1.78019
22.3588
2.01275
4.72514
4.90125
4.34099
20.3501
10.1576
2.11491
1.99062
1.9179
14.2532
6.45963
551.676
568.608
96.3403
43.4735
50.2348
1.38187
-0.707366
22.6266
33.1839
-3.22505
-1.27182
21.1745
3.68952
6.00868
1.41972
16.7666
20.2097
20.4239
1.46835
1.68192
1.70261
9.98841
7.25716
79.9407
77.7247
102.747
3.55107
3.39509
2.13849
0.784528
60.4488
61.2008
-1.78504
-0.41425
25.5921
3.60778
1.88697
1.44389
20.7303
20.0345
3.21827
1.02909
1.39637
1.49424
103.337
8.62769
8.99725
4.96937
62.9605
3.78492
3.16113
2.05224
0.813661
-1.05499
2.53652
7.58241
18.8207
3.13106
2.10214
2.52264
1.68264
1.23387
0.723711
0.777016
1.09207
1.27096
1.3499
822.918
5.24908
5.16217
5.05468
86.8993
3.65614
2.92804
4.74655
4.30729
3.41486
3.02826
2.89937
1.83223
1.82458
2.21976
1.78286
1.58374
1.29456
1.08431
1.05639
1.13241
1.20799
1.25066
550.682
6.08817
5.48657
5.53916
89.0658
3.65104
3.21588
4.09082
1.98084
1.42747
1.25278
0.966615
1.31283
1.41089
1.55519
1.53245
1.41028
1.25069
1.13708
1.10201
1.11908
1.14737
1.16515
76.4228
12.1976
6.09347
95.3351
4.40632
3.6807
3.9523
2.77621
2.15832
1.61754
1.25804
1.13882
1.18791
1.29348
1.35128
1.3319
1.25753
1.16812
1.10242
1.07344
1.07091
1.07746
1.08061
144.498
9.62186
102.913
66.3904
3.90693
3.66768
4.26002
2.6353
2.11319
1.62253
1.26966
1.10626
1.08828
1.127
1.15276
1.14247
1.10417
1.05827
1.02258
1.00346
0.997156
0.995759
0.992332
97.4829
27.8506
80.1582
4.49586
4.02138
4.37291
3.97716
2.40144
1.88597
1.41898
1.08159
0.91413
0.881064
0.904876
0.932239
0.943226
0.937705
0.92486
0.91328
0.906836
0.904628
0.90323
0.899064
43.6558
659.886
11.1217
5.08481
3.89028
3.26788
2.50959
1.95093
1.43383
0.976269
0.663776
0.528501
0.539207
0.601829
0.664997
0.715809
0.749048
0.768988
0.78171
0.790977
0.797823
0.801554
0.800901
59.7917
611.771
33.7612
63.1996
35.9616
2.49806
1.84885
1.24508
0.682061
0.29922
1.24502
-0.125933
-0.0186828
0.164194
0.323189
0.44756
0.533607
0.592239
0.632588
0.660865
0.680386
0.692724
0.698461
63.7911
565.306
49.5499
50.2338
53.9249
71.0739
8.46809
0.334391
0.194481
0.547184
-0.419689
0.23327
0.563615
-0.0615192
-0.115634
0.132953
0.292168
0.398754
0.471572
0.522079
0.556826
0.579762
0.593226
54.2007
-6.04043
556.389
2.49326
-2.96045
43.9745
75.0737
-0.812543
-0.0903608
-1.85776
-2.06871
-1.89243
-0.221666
0.14486
-0.643808
-0.223445
0.0345542
0.1999
0.30951
0.38352
0.433597
0.466793
0.487497
76.7121
-8.87108
465.633
-0.134612
-5.99601
-5.95162
68.1382
-2.11399
2.7156
-2.95899
-2.92884
-1.21955
-1.3941
-1.54458
-1.28789
-0.591884
-0.203566
0.0231175
0.164611
0.256481
0.317307
0.357566
0.38349
79.0226
-0.38897
-1.53285
253.173
-6.93882
-6.83808
69.2773
-3.18906
1.94846
-3.56257
-3.57706
-1.35428
-0.826573
-2.18847
-2.0223
-0.896749
-0.357759
-0.100794
0.0503837
0.14665
0.210483
0.253544
0.282379
82.392
-0.988124
-1.0055
75.161
-4.33155
-5.63746
58.5998
-3.37795
1.14089
-4.62599
-4.31394
-3.52573
-1.79529
-2.25308
6.42823
-0.899358
-0.402355
-0.176981
-0.0405376
0.0491809
0.110822
0.154071
0.184368
85.6245
-0.467102
70.7903
17.6244
-4.77723
-4.6547
70.9661
-0.57385
0.905177
0.101817
-4.731
-3.73186
-2.95162
-2.20799
7.52805
-0.478363
-0.412136
-0.237264
-0.122101
-0.0420883
0.0156731
0.0581142
0.0892443
12.9424
19.6268
78.1885
79.5672
62.7227
15.4173
75.5138
-0.841035
1.93252
-0.612911
-4.15175
-3.36391
-2.85318
7.33758
8.00325
-0.617417
-0.409781
-0.28615
-0.196286
-0.128255
-0.0755818
-0.0346222
-0.00303895
48.178
18.4227
4.25877
81.4982
84.0937
85.1692
15.6327
-0.845707
-1.85856
-2.58073
-2.69499
-2.38212
-1.95572
6.88757
-0.548952
-0.468719
-0.39099
-0.326538
-0.266944
-0.21241
-0.164998
-0.125408
-0.0932831
3.84152
25.3614
-3.87304
76.7756
77.6428
25.0082
-0.301712
-0.472551
-0.543379
-0.810556
-1.09788
-0.754654
-0.51946
1.85745
-0.2811
-0.260218
-0.362576
-0.373674
-0.340918
-0.296099
-0.251747
-0.21239
-0.179257
792.159
857.433
909.154
833.59
737.268
251.238
367.06
334.707
595.321
422.921
91.2478
345.206
44.2058
89.3643
25.8701
3.34559
16.8061
57.1357
2.35899
2.31052
15.3294
2.13902
2.17526
2.19132
2.05783
2.04622
2.01081
2.07554
2.1355
2.20492
1.99174
2.39812
2.31646
2.25216
2.21094
3.16909
3.7024
4.1739
5.2535
2.52767
4.54782
2.78274
2.46983
2.44886
2.55361
2.52216
2.49305
2.46554
2.55587
2.52147
2.4893
2.45914
2.5391
2.5044
2.47158
2.44052
2.51131
2.47677
2.44398
2.4128
2.47468
2.44037
2.40781
2.37695
2.42971
2.39556
2.36333
2.33298
2.37599
2.34197
2.31009
2.28033
2.3124
2.27855
2.2472
2.2182
2.23663
2.20343
2.17326
2.14572
2.14425
2.11331
2.08616
2.06201
2.0278
2.00251
1.98184
1.96508
1.87682
1.86074
1.84998
1.84495
1.69005
1.67948
1.66731
1.65149
1.50438
1.49344
1.46817
1.41784
1.36641
1.36154
1.34709
1.32099
1.26089
1.25849
1.25132
1.24013
1.16701
1.16312
1.15657
1.14838
1.07584
1.07024
1.0624
1.05247
0.984236
0.977548
0.968853
0.957682
0.890792
0.884314
0.876267
0.866567
0.79564
0.790998
0.785153
0.778253
0.698118
0.696143
0.692955
0.688592
0.598339
0.599076
0.598433
0.596469
0.497538
0.500652
0.502208
0.502335
0.397306
0.402317
0.405705
0.407638
0.298811
0.305284
0.310179
0.313667
0.202666
0.210298
0.216446
0.221274
0.109031
0.117643
0.124871
0.130871
0.0180041
0.0274803
0.0356662
0.0427061
-0.0709861
-0.0606597
-0.0515427
-0.043516
-0.155588
-0.144418
-0.134413
-0.12548
431.599
112.317
461.788
596.83
633.664
164.578
105.502
554.243
320.582
153.589
78.2306
60.8172
217.625
287.825
38.9065
54.2131
491.798
561.39
428.748
77.5202
-19.1173
-18.7105
409.68
463.588
174.248
208.905
476.296
24.0172
138.094
96.6798
5.77867
6.3097
342.63
515.093
392.629
628.012
595.733
156.183
355.182
59.3672
-16.7434
-7.70213
531.906
28.5443
146.71
585.064
19.2659
13.3965
56.3388
6.19472
5.9825
4.44641
51.0539
535.483
274.021
15.3823
169.869
254.339
421.867
126.459
-15.7236
426.739
536.376
248.286
663.565
554.071
11.8195
11.9337
7.25282
4.88941
4.20311
3.30089
0.515933
5.25102
8.07489
8.58841
2.26887
49.479
533.945
267.655
148.197
766.116
676.472
117.382
635.988
10.8624
11.3172
34.9618
3.89874
3.67059
2.64402
1.56735
4.72793
7.00974
8.11169
2.21911
2.33609
2.19156
642.62
658.17
669.819
458.623
13.5613
62.8164
37.7287
58.0662
53.3388
4.96543
2.85975
2.88408
2.34597
7.441
9.18998
6.3693
2.66852
2.85166
2.22917
10.2632
27.7315
22.5814
2.81773
3.0488
25.4591
10.9699
3.59687
32.7835
3.99935
2.50604
2.12218
2.7735
2.27206
7.82853
7.23567
2.90644
2.2851
2.3045
2.2857
2.63172
2.46205
2.53617
2.70957
4.07429
3.66246
2.6409
21.9957
48.2342
2.95515
2.20151
2.166
2.37454
2.97545
3.40748
2.40675
2.34647
2.35441
2.34937
2.40781
2.4682
2.37873
4.89616
7.91244
3.63113
29.8959
128.351
54.9655
1.72081
2.02743
2.23036
5.87656
6.30704
3.15713
2.38358
2.38643
2.36053
2.3523
2.36919
2.39043
2.27147
1.97706
6.56221
3.64144
35.9916
56.4718
0.83645
1.1966
1.45508
5.45883
5.57272
5.80663
2.73303
2.43197
2.3913
2.35273
2.33035
2.32349
2.32148
2.1465
1.83266
1.76328
3.42942
1.43471
1.10334
0.599369
0.652852
0.970471
5.27626
1.31834
1.61228
2.32825
2.43135
2.37877
2.33399
2.29558
2.26017
2.43511
2.55404
1.5097
1.11522
5.84366
0.980292
0.878622
0.297194
0.330469
1.27857
1.29878
1.40271
1.4896
4.77042
2.42133
2.36194
2.30868
2.25714
2.19786
2.52853
2.4408
1.34171
0.739145
5.66171
0.83744
1.63249
0.367133
0.344383
3.7025
1.82408
1.52468
1.59624
4.72694
2.40123
2.33865
2.28131
2.22426
2.15799
2.06972
2.6035
1.50383
0.991033
6.29634
6.47422
1.30351
0.585925
0.605618
1.09207
1.27148
1.61109
1.71283
5.04561
2.37327
2.31031
2.25321
2.19838
2.14005
2.06995
2.47747
2.47855
1.72952
2.12713
2.1112
1.51435
0.990939
2.80636
1.21379
1.37077
3.18384
1.89447
1.97217
2.33798
2.27665
2.22286
2.17502
2.13132
2.09077
2.05754
2.15466
2.94429
2.30104
2.23676
1.89821
3.73123
2.86663
1.32295
1.47214
4.9498
2.10967
4.68705
2.29495
2.23628
2.18718
2.14793
2.11984
2.10606
2.11319
2.14744
2.20134
2.57614
2.7815
3.54992
2.24179
1.50599
1.43721
4.79207
5.09341
3.60601
2.01055
2.24338
2.18752
2.14285
2.1112
2.09612
2.10327
2.13873
2.19288
2.21034
2.10675
1.93778
1.80677
1.7267
1.64811
4.78338
4.73838
3.08938
5.5904
1.83866
2.18251
2.12914
2.08724
2.05996
2.05245
2.07273
2.13016
2.20711
2.19284
1.95404
1.75684
1.71877
1.73244
5.26775
4.04531
1.17876
1.42013
5.17239
4.30028
2.11202
2.06098
2.01893
1.99102
1.98313
2.0019
2.25943
5.86124
6.10655
4.2133
1.43452
1.55863
1.67883
4.76902
1.0871
1.07343
3.92463
2.02781
2.05908
2.03256
1.9854
1.93843
1.90522
1.88642
2.15913
6.07546
6.00571
5.85325
5.18982
1.06774
1.34884
3.48779
1.90657
1.48092
1.64171
3.84815
1.59679
1.51116
1.94549
1.90949
1.84551
1.81139
1.91937
5.98837
2.74023
1.43865
4.46388
2.12025
1.03724
1.25087
1.34337
3.76666
1.27538
1.02786
2.7196
3.67145
1.49971
1.84166
1.88599
1.71689
1.68844
4.37454
2.77882
1.43029
1.37808
1.25411
3.45351
1.13229
1.24949
1.29666
3.8933
1.3234
4.7175
1.07041
3.77972
0.975373
1.89976
5.83889
2.39134
1.50858
4.95656
1.28605
1.39346
1.37909
1.20755
2.85729
3.49183
1.24847
1.29215
1.50022
5.36853
4.90136
4.62582
2.37178
1.02394
1.34313
5.62034
5.69149
1.46974
3.04903
1.10421
1.20458
1.19798
1.15965
1.13436
3.43096
2.25003
1.318
1.29665
1.12238
2.9193
2.12879
1.47531
1.16369
1.26708
1.19391
4.29292
5.32442
1.57428
1.03402
1.13571
3.82867
1.17459
1.08033
1.07573
3.08625
4.16063
4.2521
3.94466
0.834297
0.79548
0.907858
1.08976
1.22033
1.17649
1.14477
4.3478
4.35103
1.11324
3.10989
2.85492
1.10169
1.00705
0.996769
0.983698
0.961217
1.99331
4.0586
2.27875
0.723645
0.788028
1.10813
1.13512
1.4686
2.09952
1.45038
4.14376
4.3046
3.72612
0.948773
0.940921
0.930537
0.91755
0.8999
0.873396
0.828375
0.749577
3.8765
3.39589
0.721904
0.998248
1.03849
2.09045
1.34993
0.88349
0.893809
1.07087
0.879125
0.875749
0.867056
0.855766
0.84156
0.822972
0.797594
0.761411
0.710123
0.716984
3.86446
0.880203
4.33677
0.942346
0.900248
0.864257
0.813581
0.787524
0.784868
0.798172
0.802687
0.794556
0.782881
0.768748
0.751407
0.729857
0.703474
0.673201
0.643862
0.639924
1.98257
1.16129
0.85209
0.816678
0.875364
0.778787
0.655422
0.647159
1.19723
0.730278
0.721929
0.710916
0.697924
0.68288
0.665552
0.646317
0.626916
0.611465
0.608605
0.616303
0.615863
0.766866
0.73639
0.793209
0.701509
0.563039
0.553703
1.13007
1.18483
0.647811
0.63872
0.627823
0.615556
0.602072
0.587984
0.574668
0.56432
0.558987
0.556525
0.549595
0.680925
0.660914
0.627651
0.582304
0.544121
0.529089
0.557893
1.12019
0.571368
0.565734
0.557793
0.548461
0.538272
0.527885
0.51826
0.510489
0.504881
0.500509
0.496476
0.591987
0.578573
0.558143
0.532875
0.508924
0.497467
0.490532
0.776445
0.495527
0.493312
0.488121
0.481398
0.473908
0.466283
0.459198
0.453244
0.44852
0.444688
0.442666
0.500641
0.492507
0.479091
0.462759
0.447159
0.444154
0.426758
0.424194
0.424589
0.422795
0.41921
0.414466
0.409103
0.403614
0.39848
0.39409
0.390605
0.388034
0.387844
0.408383
0.40477
0.396684
0.386177
0.375761
0.367313
0.360073
0.35687
0.355358
0.353554
0.350967
0.347697
0.344013
0.340235
0.336696
0.33369
0.33143
0.330106
0.331244
0.316564
0.316967
0.313304
0.307339
0.300913
0.295253
0.290606
0.287898
0.286283
0.284831
0.283103
0.281031
0.278722
0.276357
0.274158
0.272357
0.271161
0.270798
0.272541
0.226065
0.230054
0.230219
0.22807
0.224993
0.222005
0.219536
0.217954
0.216991
0.216229
0.215393
0.214399
0.213274
0.212114
0.211068
0.210302
0.209979
0.210274
0.212004
0.137337
0.144515
0.148007
0.149106
0.148931
0.148314
0.14774
0.147469
0.147476
0.147605
0.147716
0.147748
0.147697
0.147614
0.147589
0.147726
0.148123
0.148858
0.150328
0.0506512
0.060624
0.0669671
0.0707993
0.073073
0.0745181
0.0756204
0.0766613
0.0777402
0.0788477
0.079936
0.080974
0.0819479
0.0828766
0.0838021
0.0847632
0.0858033
0.0868903
0.0881118
-0.0341831
-0.0217026
-0.0129001
-0.00676751
-0.00244179
0.000762065
0.0033438
0.00562526
0.00778149
0.00989133
0.0119705
0.0140104
0.0159926
0.0179076
0.0197513
0.0215091
0.0231826
0.0246614
0.0257414
-0.114942
-0.100342
-0.0895353
-0.0815756
-0.0756341
-0.0710268
-0.0672261
-0.0638682
-0.0607252
-0.057664
-0.0546303
-0.0516207
-0.0486624
-0.045796
-0.0430694
-0.0405379
-0.0382375
-0.036242
-0.0349281
1237.21
1227.15
1214.53
1195.82
1171.33
1140.49
1102.11
1054.61
997.853
934.398
872.682
822.074
788.583
773.787
780.356
798.287
812.23
857.795
869.05
881.602
875.401
857.574
844.122
1238.5
1228.22
1214.87
1196.56
1172.34
1141.79
1103.4
1055.61
998.286
933.205
870.058
819.067
785.223
770.132
778.034
797.681
805.983
845.078
855.191
880.316
875.398
855.355
841.228
1240.88
1230.32
1216.22
1198.22
1175.06
1145.09
1106.62
1058.09
999.409
934.281
868.757
814.078
776.181
759.719
769.225
794.274
806.91
826.632
836.129
881.683
877.107
850.686
834.338
1243.42
1232.02
1218.23
1201.11
1179.34
1150.22
1111.72
1061.97
1000.51
930.386
859.353
801.334
760.917
741.733
753.541
784.234
807.089
798.12
852.691
890.115
882.053
841.914
822.867
1245.04
1231.69
1220.47
1205.28
1184.97
1157.01
1118.75
1067.37
1001.7
924.115
844.565
783.334
738.671
712.501
729.532
767.201
810.407
797.036
874.786
907.453
891.328
827.173
805.599
1245.24
1229.78
1222.83
1210.89
1192.11
1165.54
1127.82
1074.48
1002.98
914.835
820.498
723.536
681.201
664.489
693.745
744.773
794.251
841.536
897.631
932.73
904.37
793.205
781.087
1244.92
1228.11
1225.16
1218.07
1200.78
1175.83
1139.1
1083.45
1004.83
789.643
575.378
528.984
578.504
595.712
643.01
717.755
778.104
841.204
911.307
963.4
911.905
702.317
746.163
1245.6
1228.52
1230.09
1226.7
1210.84
1187.76
1152.8
1095.19
854.87
651.896
694.256
655.872
471.748
564.209
584.968
687.816
759.305
831.567
913.303
992.2
909.476
681.886
728.157
630.259
661.119
575.442
513.07
468.469
501.038
499.72
539.782
625.219
581.816
413.191
264.481
252.478
302.299
462.085
505.495
456.519
459.855
520.742
606.654
637.733
533.811
475.389
439.391
503.276
477.245
493.285
605.365
612.443
405.151
269.466
262.743
296.615
454.298
528.773
439.352
405.773
510.749
621.102
585.146
455.003
464.796
412.588
498.18
412.614
494.676
568.043
613.468
307.924
199.648
206.579
237.672
373.878
510.4
376.134
314.787
470.626
670.053
485.909
293.631
437.827
476.542
488.678
458.437
396.432
518.251
592.567
140.828
43.0509
29.5369
41.5666
266.482
431.413
323.062
296.29
423.98
698.829
375.769
276.053
528.292
474.167
471.761
305.329
447.925
502.733
435.047
276.428
36.8914
23.3908
26.8335
37.4974
423.053
431.218
299.727
441.919
702.09
314.073
283.033
582.881
498.068
394.307
253.704
501.057
453.846
116.452
292.304
239.054
18.5126
24.4216
30.3854
381.519
447.138
343.154
415.439
663.859
602.764
286.181
564.436
402.473
165.982
483.778
480.774
411.796
58.1512
278.314
289.057
53.6337
22.0356
33.1132
375.279
447.66
510.353
417.988
678.089
619.57
385.217
598.976
207.319
250.113
283.596
491.819
421.758
63.6867
62.9074
331.375
281.95
24.9137
37.6833
260.869
527.081
535.082
502.365
1249.15
1234.76
1237.65
1236.97
1225.07
1204.76
1172.54
1064.89
731.767
774.895
549.933
489.382
383.134
237.603
411.819
614.223
709.19
810.883
899.747
997.216
885.155
740.946
753.933
1263.13
1258.31
1259.67
1259.47
1248.11
1232.76
1207.26
891.953
906.384
790.771
798.767
729.151
660.223
555.217
237.595
315.283
660.749
761.243
804.79
823.155
623.336
311.773
724.561
1279.83
1276.12
1281.09
1271.83
1260.44
1242.3
957.413
809.637
627.843
334.89
150.32
59.1707
629.832
193.143
519.184
464.924
342.062
431.679
549.257
479.437
581.734
50.4994
162.741
1287.26
1281.91
1279.05
1266.63
1257.94
1246.26
972.161
509.453
696.789
460.623
40.9575
43.4101
15.9479
214.108
20.3861
20.7044
23.381
37.4253
-0.997258
2.87397
29.8375
15.7521
19.8789
1290.91
1277.97
1263.53
1203.57
1236.63
1240.76
1181.91
190.799
121.966
149.602
13.9876
46.9929
25.2647
14.0436
37.4651
17.0772
72.9947
61.9767
-3.77647
-0.15519
-0.311046
14.3721
2.86658
1199.61
1162.74
906.674
1013.23
734.461
670.158
1188.37
656.631
181.204
32.0071
7.93008
15.4747
22.1438
12.212
11.7219
27.9775
73.1731
21.1618
9.20801
1.25685
1.05816
12.3894
15.4946
1204.9
1209.89
1184.25
54.1904
64.4565
595.273
966.858
521.112
128.104
119.289
75.7978
32.3046
20.4989
8.44508
8.81569
62.8498
3.1397
2.99114
6.81821
5.18328
1.87895
3.78199
3.51783
1466.8
1216.36
47.7358
42.1504
45.477
113.524
168.157
52.6404
20.9034
16.7968
74.7399
20.1374
74.1968
6.14966
5.96695
16.4398
3.00141
3.24873
2.95075
7.50163
5.05939
2.22407
2.20937
1562.31
419.782
47.7357
41.26
98.2055
96.5464
32.0608
32.7891
21.0116
52.0381
9.24667
8.62861
80.5468
80.6672
7.35177
4.96975
3.97935
3.53298
3.01066
2.62843
3.00559
2.40393
2.35846
275.78
243.285
45.4611
72.7442
60.4464
22.8161
20.7124
24.8621
18.9104
16.6798
11.4073
7.86085
6.14467
9.33579
6.98705
24.3301
3.27771
3.20477
3.00103
2.79105
3.4246
6.21474
4.76865
263.957
308.504
44.7624
71.7009
24.4013
21.274
20.0446
21.4965
23.4384
18.0991
18.8297
3.46306
4.72513
4.90967
7.58952
20.3686
3.2964
3.16114
3.00388
2.85709
2.74656
3.51964
5.36771
307.017
210.887
56.2134
36.3853
65.7311
19.4793
19.5399
19.9455
32.331
88.276
66.6087
1.48002
2.63922
6.06983
5.42488
3.43744
3.27343
3.13045
2.99501
2.87093
2.7642
2.66952
2.58254
238.964
557.432
42.9282
13.957
82.3608
88.0405
39.5879
46.3398
75.1754
9.36996
-1.566
-1.61431
2.71195
7.19346
3.38925
3.32414
3.21496
3.09274
2.9739
2.86185
2.76016
2.66819
2.58407
137.144
556.332
13.7837
5.55118
4.63909
45.6432
80.0421
1.49717
1.5767
0.949546
1.84137
1.6235
3.51388
8.08052
3.24879
3.28457
3.17593
3.05157
2.94391
2.83908
2.7408
2.65016
2.56728
111.677
729.725
4.26969
4.29443
3.46391
1.86172
-0.324526
-0.301179
0.375157
1.03093
4.5351
8.76521
8.81872
8.25866
3.24194
3.22027
3.11444
3.01299
2.90878
2.80714
2.71087
2.62135
2.5393
45.8461
851.066
4.04224
1.79607
0.746843
4.66219
4.40273
7.11496
9.11486
4.30115
2.73573
3.82406
5.32176
4.64741
3.37219
3.20298
3.08821
2.97569
2.86937
2.76837
2.67295
2.58402
2.50249
130.437
844.459
-4.10894
-2.32811
-4.58213
-9.00347
-10.7435
-8.81247
-4.19629
23.8229
37.2287
3.95691
3.94625
3.72179
3.43803
3.20592
3.05331
2.93108
2.82366
2.72331
2.62809
2.53898
2.45742
181.256
852.397
-7.30485
-7.7013
-11.6839
-16.5804
-17.2746
-13.3032
-5.43484
-0.438107
8.81739
51.9591
3.85797
3.60488
3.34375
3.13767
2.98789
2.87194
2.77052
2.67251
2.57668
2.48612
2.40374
917.239
0.165149
-4.52191
-7.00843
-14.2552
-19.2856
-19.8109
-13.2078
-4.96239
1.56677
2.78378
56.8917
3.88044
3.40854
3.18247
3.01113
2.8889
2.79867
2.71359
2.61847
2.5191
2.42458
2.34027
946.937
4.14125
-0.432746
-2.73153
-9.20814
-14.5253
-13.7391
-9.18109
-3.22053
1.77947
2.99995
3.72292
25.8628
3.12254
2.9529
2.83099
2.7549
2.71773
2.6646
2.56584
2.45438
2.35159
2.26439
950.23
9.29599
4.65694
1.69604
-1.11011
-4.12766
-5.13011
-4.83751
-2.79006
-1.33338
1.43252
3.02268
25.4991
2.66769
2.64607
2.58829
2.56229
2.62816
2.65068
2.51647
2.37438
2.25967
2.17079
119.48
55.7164
7.76594
6.83605
4.53255
1.6505
0.434089
-1.20538
5.86966
42.8931
-2.81261
0.427369
10.2053
2.25892
2.30568
2.25849
2.64845
6.93088
3.67068
2.4322
2.25603
2.13381
2.05057
34.1483
43.1656
540.728
44.0181
11.9055
6.67026
9.09458
29.1186
5.66251
52.0656
-4.76776
-2.41837
15.5071
9.71235
2.01448
6.54902
2.42242
19.5921
20.7306
2.29636
2.04498
1.94982
1.89209
59.9475
3.53308
562.042
52.8122
93.3759
50.9698
21.3615
0.39826
-2.1001
58.3091
-3.47236
-2.04538
-1.09669
25.8885
4.30119
2.59753
3.2106
20.2856
20.4344
8.73116
1.64295
1.70035
1.69713
65.7636
4.89186
586.248
36.8363
78.102
3.56212
2.88168
1.21139
38.6034
56.7142
-2.17411
-1.0318
22.0745
23.3142
4.17598
1.31771
7.32604
20.2351
15.8422
1.01159
1.27129
1.46227
1.50611
66.2028
4.72902
16.2995
4.31972
74.609
3.64269
2.60578
1.45755
-0.0714629
0.778312
0.623534
18.1621
10.7004
1.82179
2.44128
2.44257
1.52829
0.903183
0.679485
0.939128
1.19498
1.32004
1.36453
17.2153
5.20629
5.05039
6.83302
12.1965
3.30918
4.00682
4.55127
3.90325
3.08936
2.97659
1.21164
2.04782
2.10291
1.92653
1.69564
1.44523
1.16755
1.04814
1.08962
1.17356
1.23371
1.25952
410.94
5.53145
5.49283
87.6686
3.76589
3.3667
4.36835
2.27729
1.64919
1.51872
0.93549
1.16436
1.3188
1.50439
1.56106
1.4803
1.32978
1.18425
1.11053
1.10683
1.13368
1.15821
1.16786
32.8311
6.03719
41.0337
85.3901
3.84421
3.46293
4.26026
2.43567
1.877
1.40653
1.17146
1.14864
1.24149
1.33212
1.35032
1.29939
1.21187
1.13079
1.08361
1.06999
1.074
1.07997
1.07889
416.501
10.434
100.722
4.09116
3.82409
4.46264
3.52745
2.3785
1.85688
1.42346
1.16508
1.08442
1.10596
1.14395
1.1521
1.12565
1.08083
1.03845
1.01101
0.999182
0.996333
0.99464
0.988423
711.289
105.837
6.59744
4.24645
3.84857
4.41113
2.65451
2.14199
1.64161
1.22973
0.977139
0.885545
0.890189
0.919926
0.940161
0.942028
0.931571
0.918542
0.909382
0.905395
0.904064
0.901701
0.894971
735.684
46.6991
7.98803
4.15959
3.62503
2.87699
2.21732
1.68849
1.19223
0.79853
0.573636
0.521238
0.56908
0.634208
0.692593
0.734481
0.760271
0.775946
0.786656
0.794719
0.80015
0.801868
0.798493
46.7842
423.201
28.8467
61.713
13.4858
2.16299
1.53155
0.95908
0.426477
1.06873
0.161147
-0.0378418
0.0754993
0.246322
0.390961
0.49454
0.565764
0.614227
0.647972
0.671591
0.687398
0.696407
0.698908
10.7711
618.378
34.4722
48.4355
67.5654
69.06
0.640446
0.052928
0.950152
-0.324292
0.160233
0.372951
0.762432
-0.264822
0.0219159
0.220568
0.350727
0.438506
0.499126
0.541129
0.569596
0.587572
0.596916
-8.65661
582.093
21.5142
-0.821874
0.124809
70.7041
3.32002
-0.977013
0.250819
-2.07802
-1.99875
-1.30502
0.00774247
-0.87222
-0.412095
-0.0801479
0.125938
0.260149
0.3501
0.411031
0.451985
0.478499
0.494138
-8.44198
-7.45688
418.434
-4.82582
-6.77415
37.6867
40.1891
-1.45152
-1.53169
-2.99603
-2.03683
-1.43426
-1.142
-1.59023
-0.912857
-0.371785
-0.076397
0.101728
0.215331
0.289991
0.339546
0.372036
0.392367
76.6788
-4.13825
263.908
4.9531
-7.17621
9.08099
18.3827
-0.721063
1.46413
-3.7668
-3.03598
-1.06813
-2.2139
-2.06828
-1.46277
-0.574302
-0.210838
-0.0161896
0.103605
0.18173
0.234118
0.269454
0.292753
0.097382
1.33145
0.668423
77.013
-6.11552
-4.99812
3.74071
-1.5225
0.704712
-4.73962
-3.89533
-3.15777
-1.32706
-2.09242
6.96164
-0.587403
-0.273957
-0.10126
0.00868942
0.0827662
0.134338
0.170597
0.195763
31.4203
28.071
30.5372
4.82545
-4.98591
14.496
72.5087
0.0785916
0.0793295
-5.29683
-4.13945
-3.3759
-2.50851
4.84919
5.24774
-0.534108
-0.315809
-0.174269
-0.0786909
-0.0109543
0.0385097
0.0749087
0.101431
84.0357
-2.98186
79.4087
80.3648
8.95623
73.8117
32.8048
-3.0634
1.30037
-4.52867
-3.66312
-3.15869
-1.5705
7.8692
-0.429927
-0.489724
-0.342845
-0.237928
-0.160037
-0.100268
-0.0538041
-0.0177759
0.00979871
80.744
-5.02998
83.3624
81.5382
86.3124
77.4214
-0.668064
-1.65202
-2.10445
-2.75934
-2.526
-2.21714
-1.46418
5.69942
-0.508942
-0.426584
-0.357768
-0.296234
-0.238896
-0.187737
-0.144231
-0.108456