/*--------------------------------*- C++ -*----------------------------------*\
| =========                 |                                                 |
| \\      /  F ield         | OpenFOAM: The Open Source CFD Toolbox           |
|  \\    /   O peration     | Version:  v1912                                 |
|   \\  /    A nd           | Website:  www.openfoam.com                      |
|    \\/     M anipulation  |                                                 |
\*---------------------------------------------------------------------------*/
FoamFile
{
    version     2.0;
    format      ascii;
    class       surfaceScalarField;
    location    "0.95";
    object      phi;
}
// * * * * * * * * * * * * * * * * * * * * * * * * * * * * * * * * * * * * * //

dimensions      [0 3 -1 0 0 0 0];
oriented        oriented;


internalField   nonuniform List<scalar> 
17936
(
1.10976e-06
-6.74527e-07
-4.35231e-07
-1.80192e-06
2.10904e-06
-3.07121e-07
-1.65552e-06
6.24051e-07
1.03147e-06
2.67054e-07
-6.44196e-07
3.77143e-07
6.48784e-07
-4.96391e-07
-1.52393e-07
3.71423e-07
-3.42333e-07
-2.90905e-08
3.64942e-07
-3.65242e-07
2.99901e-10
2.90998e-07
-1.04321e-07
-1.86676e-07
-2.80923e-07
9.80355e-07
-6.99431e-07
-2.00839e-06
3.14973e-06
-1.14134e-06
-4.20537e-06
5.26034e-06
-1.05498e-06
-6.11301e-06
6.52682e-06
-4.13804e-07
-5.95949e-06
4.45467e-06
1.50483e-06
-3.14207e-06
2.73719e-06
4.04876e-07
-2.81366e-06
2.82629e-06
-1.26227e-08
-2.70495e-06
2.71183e-06
-6.87937e-09
-3.20496e-06
5.26543e-06
-2.06047e-06
-5.79558e-06
1.83958e-06
3.956e-06
3.85316e-06
-1.00104e-05
6.15728e-06
1.21548e-05
-9.62854e-06
-2.52621e-06
7.04205e-06
-5.06734e-06
-1.97471e-06
3.25887e-06
-1.69518e-06
-1.56369e-06
3.6206e-07
5.63398e-07
-9.25457e-07
-6.10609e-07
2.16664e-06
-1.55603e-06
2.28847e-06
-3.00187e-06
-1.83015e-07
8.96408e-07
3.22479e-06
-2.93483e-06
-1.33595e-06
1.04599e-06
2.71281e-06
-3.00405e-06
-8.54683e-07
1.14592e-06
3.63003e-06
-4.19861e-06
-5.43117e-07
1.11169e-06
4.45703e-06
-4.34408e-06
-1.18615e-07
5.6666e-09
3.92052e-06
-3.27417e-06
4.23608e-07
-1.06996e-06
2.47985e-06
-1.58988e-06
1.11978e-06
-2.00975e-06
6.62881e-07
2.39524e-07
1.80801e-06
-2.71042e-06
-1.07974e-06
1.94289e-06
1.78562e-06
-2.64877e-06
-2.84485e-06
3.70845e-06
7.2188e-07
-1.58548e-06
-4.56899e-06
5.37739e-06
1.05721e-06
-1.86561e-06
-6.3013e-06
7.4135e-06
-2.69389e-07
-8.42813e-07
-8.20794e-06
8.28951e-06
2.97182e-08
-1.11289e-07
-7.66114e-06
6.42325e-06
-7.95833e-07
2.03372e-06
-4.56634e-06
2.13122e-06
-1.27123e-06
3.70635e-06
1.77819e-07
-1.48706e-06
2.69108e-06
-1.38184e-06
1.45903e-06
-4.17173e-06
-6.6246e-06
9.33729e-06
9.90743e-06
-1.21459e-05
-1.13299e-05
1.35684e-05
9.89377e-06
-7.35693e-06
5.84286e-06
-8.37971e-06
5.54936e-06
-3.95133e-06
3.78695e-06
-5.38498e-06
2.54867e-06
-1.35122e-06
2.82279e-06
-4.02025e-06
5.25085e-07
-1.85992e-07
1.58818e-06
-1.92727e-06
-3.7524e-06
5.34433e-06
-1.59194e-06
2.83214e-06
-3.89176e-06
-1.66059e-06
2.72021e-06
4.40102e-06
-4.112e-06
-7.12328e-07
4.23309e-07
3.45806e-06
-2.99675e-06
-1.0573e-06
5.95991e-07
2.85702e-06
-2.88108e-06
-1.35346e-06
1.37752e-06
2.94348e-06
-2.98474e-06
8.54054e-08
-4.4151e-08
2.93645e-06
-2.71438e-06
1.46964e-06
-1.69171e-06
2.26563e-06
-1.57795e-06
2.74556e-06
-3.43324e-06
6.66585e-07
4.41985e-07
3.70798e-06
-4.81655e-06
-1.70779e-06
3.13477e-06
3.81783e-06
-5.24482e-06
-4.72989e-06
6.31851e-06
3.11087e-06
-4.69948e-06
-7.74082e-06
8.91376e-06
2.93937e-06
-4.11231e-06
-9.91455e-06
1.07249e-05
1.71913e-06
-2.52947e-06
-1.10919e-05
1.07462e-05
-2.11369e-07
5.57122e-07
-9.70468e-06
8.16502e-06
-3.48211e-06
5.02177e-06
-6.38367e-06
4.27433e-06
-6.20334e-06
8.31268e-06
-1.22233e-06
-3.07911e-06
-1.72361e-06
6.02505e-06
7.08772e-06
-9.61644e-06
-1.21094e-05
1.46381e-05
1.03624e-05
-8.95517e-06
-1.35288e-05
1.21216e-05
6.75866e-06
-5.85078e-06
1.01672e-05
-1.1075e-05
5.00118e-06
-3.8472e-06
6.74351e-06
-7.89749e-06
2.4952e-06
-1.21901e-06
5.23192e-06
-6.50812e-06
4.13096e-07
-4.26034e-08
2.28183e-06
-2.65232e-06
-6.99277e-06
8.72049e-06
-1.72772e-06
3.44361e-06
-5.24734e-06
-4.19509e-06
5.99883e-06
6.08337e-06
-5.66264e-06
-8.16522e-08
-3.39076e-07
4.73766e-06
-4.02003e-06
6.27251e-08
-7.80364e-07
3.66008e-06
-3.57288e-06
-1.31056e-06
1.22336e-06
3.62652e-06
-3.68596e-06
-4.63708e-08
1.05806e-07
3.62212e-06
-3.34587e-06
1.9045e-06
-2.18075e-06
2.82572e-06
-2.06053e-06
4.14679e-06
-4.91198e-06
1.05634e-06
1.70341e-07
5.98518e-06
-7.21187e-06
-1.58735e-06
3.16094e-06
6.76046e-06
-8.33405e-06
-4.83611e-06
6.47735e-06
6.30314e-06
-7.94437e-06
-7.97422e-06
9.2818e-06
5.31775e-06
-6.62533e-06
-1.04446e-05
1.14272e-05
3.38207e-06
-4.36464e-06
-1.19807e-05
1.17382e-05
-8.31294e-07
1.07377e-06
-1.05841e-05
8.76021e-06
-6.66343e-06
8.48737e-06
-6.67547e-06
4.66911e-06
-1.02253e-05
1.22316e-05
-2.57875e-06
-9.10197e-07
-1.03906e-05
1.38795e-05
5.63865e-06
-7.62438e-06
-1.68146e-05
1.88003e-05
6.20896e-06
-3.84904e-06
-9.89118e-06
7.53126e-06
3.60642e-06
-4.91449e-06
1.07731e-05
-9.465e-06
4.92367e-06
-3.84499e-06
8.95153e-06
-1.00302e-05
2.12623e-06
-4.46235e-07
7.93839e-06
-9.61839e-06
-3.36301e-07
4.11161e-07
2.92488e-06
-2.99974e-06
-1.05057e-05
1.22899e-05
-1.78411e-06
3.95958e-06
-5.9429e-06
-7.96618e-06
9.9495e-06
6.69008e-06
-6.24312e-06
8.00413e-07
-1.24737e-06
5.42724e-06
-4.86161e-06
1.45857e-06
-2.02419e-06
4.59623e-06
-4.55364e-06
-1.14775e-06
1.10516e-06
4.59235e-06
-4.57227e-06
-1.15292e-07
9.52083e-08
4.40379e-06
-4.0372e-06
2.51604e-06
-2.88264e-06
3.44366e-06
-2.60297e-06
5.72064e-06
-6.56132e-06
1.50482e-06
-1.56753e-07
8.49796e-06
-9.84603e-06
-1.43391e-06
3.27552e-06
1.00042e-05
-1.18458e-05
-5.26262e-06
7.10959e-06
9.71335e-06
-1.15603e-05
-8.64487e-06
9.89844e-06
8.03263e-06
-9.2862e-06
-1.11942e-05
1.27727e-05
5.58217e-06
-7.16069e-06
-1.41909e-05
1.42883e-05
-1.32215e-06
1.22477e-06
-1.26316e-05
1.00346e-05
-1.06107e-05
1.32078e-05
-7.35814e-06
4.95336e-06
-1.44346e-05
1.68394e-05
-2.91118e-06
1.08397e-06
-1.63492e-05
1.81764e-05
9.47326e-07
-2.00199e-06
-2.04622e-05
2.15169e-05
8.59418e-07
-6.24884e-07
-5.93773e-06
5.7032e-06
3.4849e-06
-5.47308e-06
7.67172e-06
-5.68353e-06
5.64106e-06
-4.22287e-06
1.12374e-05
-1.26556e-05
1.57194e-06
1.07361e-06
1.15815e-05
-1.42271e-05
-2.03261e-06
1.23059e-06
2.76085e-06
-1.95884e-06
-1.39934e-05
1.55348e-05
-1.54132e-06
3.76269e-06
-5.5456e-06
-1.18552e-05
1.36381e-05
6.23234e-06
-5.90628e-06
1.64466e-06
-1.97072e-06
5.31247e-06
-5.13389e-06
2.42003e-06
-2.59861e-06
5.16651e-06
-5.2709e-06
-1.12085e-06
1.22524e-06
5.37623e-06
-5.38686e-06
-7.67234e-08
8.73548e-08
5.23075e-06
-4.86768e-06
3.25683e-06
-3.61991e-06
4.26689e-06
-3.39163e-06
7.42359e-06
-8.29885e-06
2.18236e-06
-5.73e-07
1.12849e-05
-1.28943e-05
-1.39353e-06
3.40687e-06
1.3901e-05
-1.59144e-05
-5.00434e-06
6.11794e-06
1.31149e-05
-1.42285e-05
-7.06316e-06
7.62073e-06
1.0069e-05
-1.06266e-05
-8.21865e-06
9.51368e-06
8.94085e-06
-1.02359e-05
-1.21499e-05
1.47571e-05
6.88077e-08
-2.67601e-06
-1.47556e-05
1.19794e-05
-1.62322e-05
1.90083e-05
-8.42504e-06
5.42294e-06
-1.94997e-05
2.25018e-05
-3.14965e-06
1.53025e-06
-1.97738e-05
2.13932e-05
-7.18169e-07
8.05925e-07
-2.17236e-05
2.16358e-05
-6.34303e-07
-1.83023e-06
-7.14257e-06
9.60711e-06
5.26726e-06
-7.37522e-06
3.63692e-06
-1.52896e-06
7.51401e-06
-4.68785e-06
1.45197e-05
-1.73459e-05
-8.93776e-07
6.03586e-06
1.80741e-05
-2.32161e-05
-6.81726e-06
3.30196e-06
-4.48194e-08
3.56012e-06
-1.68426e-05
1.78636e-05
-1.02094e-06
2.88342e-06
-4.37197e-06
-1.52796e-05
1.67681e-05
5.14913e-06
-5.00938e-06
2.22113e-06
-2.36088e-06
4.65166e-06
-4.99124e-06
2.52123e-06
-2.18166e-06
5.47151e-06
-5.83612e-06
-1.4482e-06
1.8128e-06
6.10455e-06
-6.23632e-06
-1.48976e-07
2.80747e-07
6.17736e-06
-5.89367e-06
3.95346e-06
-4.23715e-06
5.33514e-06
-4.32214e-06
9.20045e-06
-1.02135e-05
2.65206e-06
-8.19889e-07
1.4743e-05
-1.65752e-05
-1.25067e-07
6.40669e-07
1.73134e-05
-1.7829e-05
-2.5455e-06
4.6826e-06
1.58451e-05
-1.79822e-05
-5.40091e-06
3.94939e-06
1.10582e-05
-9.6067e-06
-1.68739e-06
2.08592e-07
9.74941e-06
-8.27061e-06
-6.13537e-07
5.36542e-06
6.00977e-06
-1.07616e-05
-1.0462e-05
1.15111e-05
-2.03944e-05
1.93453e-05
-9.15006e-06
5.98072e-06
-2.5781e-05
2.89503e-05
-3.39101e-06
1.49577e-06
-2.31457e-05
2.50409e-05
-1.74478e-07
-5.9513e-07
-2.18467e-05
2.26163e-05
1.89058e-06
-4.71193e-06
-1.23696e-05
1.51909e-05
7.9966e-06
-1.03101e-05
-6.85555e-07
2.99905e-06
1.00272e-05
-7.20731e-06
2.11513e-05
-2.39712e-05
4.4614e-06
-1.57582e-06
2.82305e-05
-3.11161e-05
-2.96712e-06
3.38713e-06
-6.87332e-06
6.4533e-06
-1.85705e-05
1.89532e-05
-3.82692e-07
1.58586e-06
-2.68216e-06
-1.80804e-05
1.91767e-05
3.57267e-06
-3.67031e-06
2.35923e-06
-2.26158e-06
3.72411e-06
-4.68471e-06
1.56354e-06
-6.02935e-07
5.66644e-06
-6.34493e-06
-2.3319e-06
3.01039e-06
6.84714e-06
-7.17654e-06
-5.01907e-07
8.31311e-07
7.2969e-06
-7.1001e-06
4.45822e-06
-4.65502e-06
6.28654e-06
-4.731e-06
1.15105e-05
-1.30661e-05
3.67612e-06
-5.23715e-06
1.74196e-05
-1.58586e-05
8.81612e-06
-1.1706e-05
1.75771e-05
-1.46872e-05
1.41483e-05
-1.54627e-05
1.68719e-05
-1.55575e-05
1.55373e-05
-1.4163e-05
7.85142e-06
-9.22568e-06
1.14368e-05
-7.99557e-06
9.00533e-06
-1.24466e-05
6.15708e-06
-5.97769e-06
1.43364e-05
-1.45158e-05
1.91372e-06
4.32408e-06
-1.4771e-05
8.53322e-06
-6.47858e-06
5.61908e-06
-3.14191e-05
3.22786e-05
-3.7492e-06
1.90948e-06
-2.70243e-05
2.8864e-05
-1.92211e-07
-1.4021e-06
-2.3872e-05
2.54663e-05
3.3969e-06
-6.4682e-06
-1.80609e-05
2.11322e-05
1.00494e-05
-1.29349e-05
-5.44509e-06
8.33059e-06
1.62456e-05
-2.29128e-05
2.25344e-05
-1.58672e-05
2.89812e-05
-2.83428e-05
3.30128e-05
-3.36511e-05
2.01088e-05
-6.43713e-06
3.92083e-07
-1.40638e-05
7.58348e-06
-1.36751e-05
6.09166e-06
-8.54858e-06
5.13644e-06
3.41213e-06
3.78105e-06
-1.5865e-05
1.20839e-05
1.88377e-05
-1.25436e-05
-6.2941e-06
6.56014e-06
-5.89804e-06
-6.62094e-07
5.40345e-06
-6.19514e-06
7.91688e-07
9.68615e-06
-1.389e-05
4.2038e-06
1.64763e-05
-1.71784e-05
7.02102e-07
1.6289e-05
-1.28793e-05
-3.40961e-06
7.64536e-06
4.7252e-07
-8.11788e-06
-1.33493e-05
3.00755e-05
-1.67261e-05
-4.03739e-05
4.35392e-05
-3.1653e-06
-4.16363e-05
3.6305e-05
5.33129e-06
-2.85888e-05
1.95489e-05
9.03986e-06
-1.21343e-05
4.81835e-06
7.31591e-06
3.31938e-06
-4.8804e-06
1.56101e-06
9.07886e-07
-2.98388e-06
2.07599e-06
1.41062e-05
-2.19654e-05
7.85926e-06
1.76732e-05
-6.61668e-06
-1.10565e-05
1.83211e-05
-1.9492e-05
1.17084e-06
-3.16578e-06
-8.00521e-06
-1.04275e-05
2.15985e-05
1.98194e-05
-2.39516e-05
-2.05238e-05
2.4656e-05
2.15742e-05
-1.30145e-05
1.59923e-05
-2.4552e-05
3.81325e-06
-4.41904e-06
-2.04505e-06
2.65083e-06
1.18409e-05
-1.78985e-05
-4.39721e-06
1.04547e-05
2.18252e-05
-2.5351e-05
-6.57434e-06
1.01002e-05
3.13664e-05
-3.5546e-05
-4.88998e-06
9.06951e-06
2.76838e-05
-1.10382e-05
1.09187e-05
-2.75643e-05
9.06693e-07
5.28852e-06
2.12513e-05
-2.74465e-05
-1.25524e-05
2.01755e-05
2.70229e-05
-3.4646e-05
-2.55929e-05
2.90043e-05
7.09382e-06
-1.05053e-05
-3.11118e-05
3.29383e-05
-6.25929e-06
4.43283e-06
-3.44395e-05
3.51132e-05
-1.12736e-05
1.05999e-05
-3.36503e-05
2.91203e-05
-1.5472e-05
2.0002e-05
-1.83788e-05
2.1584e-06
-1.29753e-05
2.91958e-05
1.01625e-05
-1.82215e-05
-8.93547e-06
1.69945e-05
2.29846e-05
-2.17752e-05
-8.90002e-06
7.69059e-06
1.74315e-05
-9.55905e-06
2.01791e-05
-2.80515e-05
1.71333e-05
-1.24619e-05
-4.67145e-06
9.07449e-06
-1.78804e-05
-3.22607e-05
4.10666e-05
2.51116e-05
-2.81909e-05
-2.82383e-05
3.13176e-05
2.42277e-05
-1.93797e-05
3.11931e-05
-3.60411e-05
1.59662e-05
-1.31549e-05
-5.94096e-07
-2.21718e-06
1.63761e-05
-2.13093e-05
-1.6242e-05
2.11752e-05
2.50853e-05
-2.92111e-05
-1.51422e-05
1.9268e-05
3.00251e-05
-2.23337e-05
-5.06553e-06
-2.62588e-06
9.85787e-06
-4.19308e-07
4.09428e-05
-5.03814e-05
3.57012e-07
-1.29731e-06
3.00168e-05
-2.90765e-05
-1.89303e-06
1.10152e-05
4.25891e-05
-5.17113e-05
-1.91747e-05
2.30269e-05
1.41035e-05
-1.79557e-05
-2.47983e-05
2.62659e-05
-2.54205e-06
1.07439e-06
-2.75992e-05
2.88976e-05
-9.72678e-06
8.42843e-06
-2.90895e-05
2.81667e-05
-2.21488e-05
2.30717e-05
-2.39577e-05
1.16922e-05
-4.43253e-05
5.65907e-05
3.78699e-06
-1.10546e-05
-2.53358e-05
3.26034e-05
1.41706e-05
-1.57693e-05
-7.26135e-06
8.86005e-06
1.38866e-05
-7.80275e-06
3.53773e-05
-4.14612e-05
6.8224e-06
-1.6482e-06
-5.1742e-06
1.07168e-05
-1.53149e-05
-4.79446e-05
5.25427e-05
1.8759e-05
-2.29758e-05
-3.4038e-05
3.82549e-05
2.1179e-05
-1.86867e-05
3.94231e-05
-4.19154e-05
1.91439e-05
-1.92499e-05
3.66209e-06
-3.55611e-06
1.96659e-05
-2.32312e-05
-2.53285e-05
2.88938e-05
2.74885e-05
-2.90035e-05
-2.19744e-05
2.34893e-05
2.36258e-05
-1.20293e-05
1.13963e-05
-2.29928e-05
2.26804e-06
-3.30422e-06
5.58143e-05
-5.47781e-05
9.46557e-06
-1.67425e-05
2.47556e-05
-1.74787e-05
1.75049e-05
-7.87331e-06
6.37841e-05
-7.34157e-05
-9.8645e-06
2.79412e-05
2.50862e-05
-4.31629e-05
-3.81779e-05
4.00822e-05
-2.20136e-06
2.97095e-07
-3.733e-05
3.28046e-05
-7.6956e-06
1.2221e-05
-2.85167e-05
2.42996e-05
-2.43102e-05
2.85274e-05
-2.20674e-05
1.44392e-05
-6.64591e-05
7.40873e-05
-3.34603e-06
-1.33328e-06
-3.7573e-05
4.22523e-05
1.75731e-06
-2.73996e-06
-1.0979e-05
1.19616e-05
2.24953e-06
-8.92636e-07
4.47154e-05
-4.60723e-05
-2.30655e-06
4.63814e-06
-2.3316e-06
4.24685e-06
-7.0085e-07
-5.41999e-05
5.06539e-05
-1.70479e-06
-4.07733e-06
-4.30448e-05
4.88269e-05
1.01405e-05
-1.72054e-05
4.09097e-05
-3.38449e-05
2.32599e-05
-2.48208e-05
2.51987e-06
-9.58964e-07
2.52986e-05
-2.74527e-05
-3.18373e-05
3.39914e-05
2.99766e-05
-2.94784e-05
-2.41683e-05
2.36701e-05
2.11833e-05
-7.34463e-06
3.63278e-05
-5.01665e-05
2.36592e-06
-8.53117e-06
4.98847e-05
-4.37195e-05
1.59226e-05
-2.4596e-05
8.56305e-06
1.10398e-07
2.99979e-05
-3.05855e-05
7.62961e-05
-7.57084e-05
2.5944e-05
-1.18791e-05
5.98491e-05
-7.3914e-05
-4.86808e-06
1.2941e-05
6.53428e-06
-1.46072e-05
-1.43711e-05
1.6513e-05
-1.10951e-05
8.9532e-06
-2.00859e-05
1.94015e-05
-3.43223e-05
3.50067e-05
-1.4311e-05
1.29226e-05
-7.93762e-05
8.07646e-05
-6.16434e-06
-5.4662e-07
-4.84037e-05
5.51147e-05
8.50454e-07
1.58317e-06
-1.05968e-05
8.16314e-06
-3.11854e-06
3.28352e-06
4.66511e-05
-4.6816e-05
-6.16059e-06
8.4313e-06
-2.2707e-06
-1.64082e-06
1.00903e-05
-4.17171e-05
3.32676e-05
-1.74982e-05
1.61058e-05
-5.31914e-05
5.45838e-05
5.90417e-07
-1.73314e-05
2.17835e-05
-5.04254e-06
2.56139e-05
-3.0048e-05
-1.66543e-06
6.09949e-06
3.1364e-05
-3.23335e-05
-3.53822e-05
3.63518e-05
3.20539e-05
-2.41326e-05
-2.06716e-05
1.27503e-05
9.4728e-06
-4.22913e-06
6.18246e-05
-6.70683e-05
7.16739e-06
-1.16785e-05
3.8042e-05
-3.35308e-05
1.49631e-05
-2.05488e-05
-7.89588e-06
1.34816e-05
2.63459e-05
-3.02322e-05
7.36655e-05
-6.97792e-05
3.26785e-05
-2.95815e-05
8.11787e-05
-8.42757e-05
2.09407e-05
-3.15202e-06
2.91331e-05
-4.69217e-05
-7.42252e-06
6.72223e-06
-1.07761e-05
1.14764e-05
-6.89229e-06
7.68874e-06
-3.26086e-05
3.18122e-05
-7.75777e-06
9.88728e-06
-7.95884e-05
7.74589e-05
-7.92604e-06
3.64035e-06
-6.10279e-05
6.53136e-05
-3.53257e-06
4.42936e-06
-6.34197e-06
5.44517e-06
-5.19956e-06
3.61268e-06
4.63034e-05
-4.47165e-05
-9.50284e-06
5.31502e-06
4.18782e-06
-4.62602e-06
1.00619e-05
-2.64786e-05
2.10428e-05
-1.50773e-05
1.90062e-05
-5.30877e-05
4.91588e-05
-7.50675e-06
-1.0205e-05
-1.28503e-05
3.0562e-05
1.85696e-05
-2.73836e-05
-1.30445e-05
2.18585e-05
3.23297e-05
-3.22412e-05
-3.65892e-05
3.65007e-05
2.44129e-05
-9.63517e-06
1.20006e-06
-1.59778e-05
3.9095e-06
-7.28993e-06
6.64982e-05
-6.31177e-05
1.28138e-05
-1.51992e-05
3.01417e-05
-2.77563e-05
1.21089e-05
-6.06364e-06
-1.40477e-05
8.00246e-06
5.23603e-06
-1.57223e-05
6.27957e-05
-5.23094e-05
2.6934e-05
-3.035e-05
8.41084e-05
-8.06924e-05
2.96304e-05
-2.55624e-05
5.79067e-05
-6.19747e-05
1.25768e-05
-2.68181e-06
-4.86048e-06
-5.03454e-06
1.71777e-06
-2.53702e-06
-3.34633e-05
3.42826e-05
2.592e-06
1.17618e-06
-7.52314e-05
7.14632e-05
-7.96735e-06
5.46743e-06
-6.8219e-05
7.0719e-05
-5.28763e-06
5.49194e-06
-4.97619e-06
4.77188e-06
-3.67321e-06
8.4326e-07
4.22848e-05
-3.94548e-05
-3.42076e-05
8.73242e-06
2.54752e-05
-2.32101e-05
2.37699e-05
-1.75021e-05
1.69422e-05
-2.10455e-05
1.97425e-05
-4.73404e-05
4.86433e-05
-1.84648e-05
1.21402e-05
-4.21069e-05
4.84315e-05
-5.08242e-08
-7.93501e-06
-3.0231e-05
3.82168e-05
1.47958e-05
-1.66764e-05
-3.61391e-05
3.80198e-05
1.28074e-05
-1.01216e-05
2.52709e-05
-2.79567e-05
9.84295e-06
-1.35192e-05
5.88068e-05
-5.51306e-05
1.87271e-05
-1.89951e-05
2.6428e-05
-2.61599e-05
1.08377e-05
5.59162e-06
3.68622e-06
-2.01155e-05
-1.93044e-05
1.09127e-05
4.09496e-05
-3.25579e-05
1.15983e-05
-2.56826e-05
7.22493e-05
-5.8165e-05
2.96482e-05
-3.02029e-05
6.23045e-05
-6.17498e-05
2.95596e-05
-2.37538e-05
1.50224e-05
-2.08282e-05
1.75856e-05
-1.28066e-05
-3.25193e-05
2.77402e-05
9.74306e-06
-5.29399e-06
-6.61799e-05
6.17308e-05
-2.44244e-07
1.51375e-06
-7.29423e-05
7.16728e-05
-3.17514e-06
3.10962e-06
-4.66846e-06
4.73399e-06
-2.31316e-07
-2.44485e-06
3.65763e-05
-3.39001e-05
-1.88381e-05
1.78852e-05
9.52896e-07
-2.85301e-07
-4.24925e-07
-2.00014e-05
2.07116e-05
2.08083e-06
-3.64891e-06
2.05342e-06
-4.8534e-07
6.23875e-06
-9.79227e-06
-7.36598e-07
4.29011e-06
1.26692e-05
-1.48691e-05
-3.83377e-06
6.0337e-06
1.6761e-05
-1.83184e-05
-1.28962e-06
2.84705e-06
1.91544e-05
-1.8591e-05
4.92243e-06
-5.48582e-06
1.80675e-05
-2.27713e-05
1.408e-05
-9.3763e-06
3.72162e-05
-5.43291e-05
1.08883e-05
6.22457e-06
6.69234e-05
-7.69444e-05
1.0525e-05
-5.0398e-07
8.28676e-05
-8.29534e-05
1.62351e-05
-1.61492e-05
7.94984e-05
-7.20583e-05
1.36476e-05
-2.10878e-05
6.24554e-05
-5.2472e-05
1.7036e-05
-2.70194e-05
4.18745e-05
-3.03869e-05
1.34366e-05
-2.49243e-05
2.45872e-05
-1.88159e-05
-4.21789e-06
-1.55339e-06
1.20511e-05
-7.42741e-06
-3.10344e-05
2.64107e-05
4.87068e-06
-4.00867e-06
-2.98323e-05
2.89703e-05
4.96884e-06
-6.62425e-06
-2.68451e-05
2.85005e-05
8.5108e-06
-1.34869e-05
-2.43111e-05
2.92872e-05
2.24654e-05
-3.63708e-05
-1.25663e-05
2.64717e-05
5.68868e-05
-7.72141e-05
6.07411e-06
1.42532e-05
8.94511e-05
-9.60834e-05
3.22064e-05
-2.55741e-05
9.56851e-05
-8.53859e-05
2.70925e-05
-3.73917e-05
-1.6186e-05
1.31843e-05
3.00174e-06
-2.74907e-06
4.12208e-06
-1.99713e-05
1.85983e-05
-3.82445e-06
4.80631e-07
-2.033e-06
5.37682e-06
5.55155e-06
-1.04759e-05
-8.7381e-06
1.36625e-05
1.42685e-05
-1.79291e-05
-8.95991e-06
1.26205e-05
2.14028e-05
-2.42452e-05
-5.09071e-06
7.93311e-06
2.66457e-05
-3.28036e-05
4.21581e-06
1.9421e-06
5.00059e-05
-7.83779e-05
-1.04888e-05
3.88607e-05
0.000103355
-0.000120755
-2.55267e-05
4.29269e-05
0.000131986
-0.000132964
-1.06563e-05
1.16342e-05
0.000123802
-0.000113584
1.67119e-05
-2.69303e-05
0.000109274
-0.000112283
2.6824e-05
-2.38146e-05
0.000117125
-0.000119337
3.49698e-05
-3.27583e-05
0.000119642
-0.000119481
3.23645e-05
-3.25258e-05
0.000116797
-0.000110941
1.21104e-05
-1.79663e-05
9.99556e-05
-8.60052e-05
-1.64597e-05
2.50935e-06
7.27544e-05
-6.24637e-05
-2.30269e-05
1.27362e-05
5.48279e-05
-4.85392e-05
-2.65787e-05
2.02899e-05
4.57085e-05
-4.56507e-05
-3.1963e-05
3.19052e-05
4.93125e-05
-5.71385e-05
-4.21524e-05
4.99783e-05
6.45769e-05
-6.86509e-05
-2.86974e-05
3.27714e-05
7.46841e-05
-8.47524e-05
1.78095e-05
-7.74114e-06
9.12583e-05
-8.99035e-05
4.50788e-05
-4.64336e-05
-8.75709e-06
3.82252e-06
4.93457e-06
-5.93329e-06
7.00659e-06
-1.73117e-05
1.62384e-05
-6.38504e-06
1.05787e-06
-9.58115e-06
1.49083e-05
5.59412e-06
-1.0388e-05
-1.87416e-05
2.35355e-05
1.47527e-05
-1.92682e-05
-1.67865e-05
2.1302e-05
2.3924e-05
-2.89727e-05
-1.15093e-05
1.6558e-05
3.56856e-05
-4.65774e-05
-1.19202e-05
2.2812e-05
6.34335e-05
-8.36879e-05
-6.63774e-05
8.66318e-05
9.66856e-05
-0.000100153
-5.3432e-05
5.6899e-05
9.18475e-05
-7.2895e-05
1.40642e-06
-2.0359e-05
5.23042e-05
-3.29645e-05
4.91676e-05
-6.85073e-05
5.42771e-06
1.5512e-05
1.26677e-05
-3.36074e-05
-5.7986e-06
-3.09859e-05
1.45414e-05
2.22431e-05
6.25356e-05
-9.50311e-05
2.08957e-05
1.15998e-05
0.000112335
-0.000122917
1.98659e-05
-9.28363e-06
0.000118349
-0.000103492
8.43714e-06
-2.3294e-05
8.59824e-05
-7.28366e-05
-2.53923e-06
-1.06066e-05
6.538e-05
-6.06712e-05
-1.30193e-05
8.3105e-06
5.64136e-05
-5.39476e-05
-2.76999e-05
2.52338e-05
4.96237e-05
-4.40131e-05
-4.61963e-05
4.05857e-05
3.995e-05
-4.01304e-05
-2.69254e-05
2.71059e-05
4.11683e-05
-3.30929e-05
-7.30533e-07
-7.34488e-06
2.44906e-05
-2.78981e-05
3.98028e-05
-3.63953e-05
5.93227e-07
-4.05646e-06
3.46323e-06
-8.1181e-06
8.67464e-06
-1.53144e-05
1.47578e-05
-5.21676e-06
-9.0025e-07
-2.08637e-05
2.69808e-05
6.03927e-06
-1.01535e-05
-2.79463e-05
3.20605e-05
1.39657e-05
-1.74896e-05
-2.57779e-05
2.93017e-05
2.20881e-05
-2.93361e-05
-2.33886e-05
3.06366e-05
3.911e-05
-4.87355e-05
-3.30529e-05
4.26785e-05
5.35257e-05
-5.35845e-05
-9.65073e-05
9.65661e-05
5.65989e-05
-5.2701e-05
-5.39774e-05
5.00794e-05
4.46977e-05
-4.16058e-05
3.11539e-05
-3.42459e-05
5.38976e-05
-6.78998e-05
6.78009e-05
-5.37987e-05
7.40764e-05
-5.7161e-05
6.26665e-05
-7.95819e-05
1.382e-05
4.84084e-05
-2.30579e-05
-3.91706e-05
-4.45237e-05
1.11663e-05
-2.94529e-05
6.28103e-05
1.48724e-05
-4.04339e-05
-1.59887e-05
4.15502e-05
4.90902e-05
-6.45427e-05
2.20762e-05
-6.62371e-06
8.21384e-05
-7.13237e-05
1.29212e-05
-2.37359e-05
3.92314e-05
-1.73316e-06
3.61236e-05
-7.36218e-05
-5.30902e-05
0.000104391
-4.64444e-05
-4.8559e-06
-8.90763e-05
2.64829e-05
-6.6952e-05
0.000129545
4.44651e-05
-7.50814e-05
-2.40076e-05
5.46239e-05
5.89927e-05
-3.08026e-05
2.80921e-05
-5.62822e-05
1.78064e-05
-1.95656e-05
4.12947e-05
-3.95356e-05
5.17156e-06
-1.9513e-06
-3.22026e-06
-3.0486e-06
4.79118e-06
-1.43445e-05
1.26019e-05
-4.94319e-06
1.50374e-06
-3.25931e-05
3.60325e-05
4.03112e-06
-9.05004e-06
-3.66134e-05
4.16323e-05
1.19792e-05
-1.17935e-05
-3.15549e-05
3.13691e-05
1.32066e-05
-1.80257e-05
-3.65307e-05
4.13497e-05
2.60349e-05
-3.46022e-05
-5.13074e-05
5.98748e-05
3.84077e-05
-3.38302e-05
-9.07185e-05
8.6141e-05
2.89343e-05
-2.78975e-05
-4.89663e-05
4.79295e-05
3.12475e-05
-4.76558e-05
2.51377e-05
-8.72942e-06
6.40463e-05
-7.71058e-05
3.62883e-05
-2.32289e-05
8.61792e-05
-8.08966e-05
9.03089e-05
-9.55915e-05
7.20738e-05
-5.7624e-05
8.57728e-05
-0.000100223
4.8535e-06
1.17403e-05
-8.38772e-05
6.72834e-05
2.60757e-05
-5.09588e-05
-5.56632e-05
8.05463e-05
7.03673e-05
-7.74552e-05
3.14413e-06
3.94378e-06
5.67459e-05
-3.70428e-05
3.99096e-05
-5.96126e-05
3.8851e-05
-4.12937e-05
7.73351e-05
-7.48924e-05
4.22065e-05
-3.93451e-05
4.44545e-05
-4.73159e-05
1.32947e-05
1.77338e-05
-0.000142712
0.000111684
-1.72231e-05
-5.77534e-06
-8.49098e-05
0.000107908
2.30792e-05
-2.84925e-05
6.36124e-05
-5.81991e-05
3.58392e-05
-4.63355e-05
3.17902e-05
-2.12939e-05
-2.40257e-06
5.71966e-06
-3.31709e-06
1.89908e-06
2.94031e-06
-7.00847e-06
2.16908e-06
-4.19473e-06
3.41708e-06
-3.74335e-05
3.82111e-05
-1.59099e-07
-5.73256e-06
-4.45191e-05
5.04107e-05
1.20851e-05
-1.4104e-05
-3.38783e-05
3.58972e-05
1.66457e-05
-2.2553e-05
-4.69061e-05
5.28135e-05
2.89105e-05
-3.16828e-05
-6.74617e-05
7.0234e-05
3.21828e-05
-2.78889e-05
-8.34946e-05
7.92007e-05
1.81776e-05
-1.2232e-05
-4.23048e-05
3.63592e-05
2.09229e-05
-2.87325e-05
-1.14795e-05
1.92891e-05
1.60515e-05
-1.04417e-05
1.50194e-05
-2.06293e-05
1.68804e-05
-2.93283e-05
9.80112e-05
-8.55633e-05
3.6993e-05
-3.81594e-05
0.000106086
-0.00010492
3.38826e-05
2.01335e-05
-1.63426e-05
-3.76736e-05
-5.6381e-05
1.00979e-05
-0.000127939
0.000174222
3.5204e-05
-4.47636e-05
-4.24685e-06
1.38064e-05
4.31325e-05
-4.86326e-05
6.17986e-05
-5.62985e-05
4.95693e-05
-4.99698e-05
7.28618e-05
-7.24613e-05
5.06223e-05
-4.75618e-05
4.94902e-05
-5.25507e-05
2.19185e-05
6.09295e-06
-7.1207e-05
4.31956e-05
-3.80248e-05
3.51065e-05
-0.000116997
0.000119916
-3.72661e-06
-2.20155e-05
4.16066e-05
-1.58646e-05
3.92312e-05
-5.14926e-05
1.1282e-05
9.79387e-07
-1.05152e-05
2.00132e-05
-9.49804e-06
8.07167e-06
-1.65312e-05
-3.54031e-06
1.19998e-05
2.71401e-05
-3.58575e-05
-4.28258e-05
5.15432e-05
4.2008e-05
-5.12417e-05
-5.59887e-05
6.52225e-05
7.70412e-05
-0.000106825
-4.80857e-05
7.78695e-05
0.000120376
-0.000114165
-5.7239e-05
5.10283e-05
9.40251e-05
-7.00718e-05
-6.58598e-05
4.19065e-05
4.94397e-05
-3.25815e-05
-6.82261e-05
5.13679e-05
1.84803e-05
-7.0239e-06
-2.93338e-05
1.78773e-05
-1.07001e-05
3.87064e-05
6.62124e-06
-3.46275e-05
-6.5645e-05
7.99049e-05
3.41795e-05
-4.84393e-05
-7.26607e-05
4.73694e-05
5.68312e-05
-3.15399e-05
-1.96045e-05
3.06025e-07
9.40472e-05
-7.47488e-05
1.02669e-05
-1.75791e-05
4.69152e-05
-3.9603e-05
1.32082e-05
-2.32899e-05
-0.000190204
0.000200285
4.5234e-05
-4.56693e-05
-1.84922e-05
1.89274e-05
5.37734e-05
-4.45832e-05
5.6098e-05
-6.52882e-05
3.7976e-05
-4.12135e-05
7.21235e-05
-6.8886e-05
4.70532e-05
-4.41091e-05
5.03627e-05
-5.33068e-05
3.70215e-05
-1.49291e-05
-1.75972e-05
-4.49511e-06
-1.74801e-05
3.53706e-05
-0.000116727
9.88367e-05
-2.72345e-05
1.3377e-06
-2.35313e-05
4.94281e-05
2.23988e-05
-3.40886e-05
-4.8517e-06
1.65415e-05
-3.37773e-05
4.68277e-05
-1.30504e-05
2.97994e-05
-4.7413e-05
-2.71144e-05
4.47279e-05
6.29829e-05
-6.88238e-05
-6.07512e-05
6.65921e-05
8.35967e-05
-9.86271e-05
-8.70425e-05
0.000102073
0.000105171
-9.88108e-05
-9.23088e-05
8.59485e-05
8.19234e-05
-5.63925e-05
-3.55333e-05
1.00024e-05
3.64443e-05
-2.56889e-05
-1.37645e-05
3.0092e-06
2.13416e-05
-1.20987e-05
-2.70223e-05
1.77794e-05
1.95259e-06
1.09552e-05
-1.1351e-05
-1.55679e-06
-3.70688e-05
2.71981e-05
6.05356e-05
-5.06649e-05
6.20746e-06
-1.93396e-05
3.68592e-05
-2.37271e-05
2.40166e-05
-4.05602e-05
2.18165e-05
-5.27293e-06
4.50814e-05
-5.19688e-05
4.8999e-05
-4.21116e-05
5.92781e-05
-6.76903e-05
2.87753e-05
-2.03631e-05
6.23916e-05
-1.81291e-05
-0.000187741
0.000143479
6.4253e-07
-1.35455e-05
-2.86668e-05
4.15697e-05
2.32372e-05
-2.16085e-05
6.39178e-05
-6.55465e-05
2.53734e-05
-2.80464e-05
7.19493e-05
-6.92762e-05
3.19685e-05
-3.91835e-05
5.35837e-05
-4.63687e-05
4.06653e-05
-3.36601e-05
1.99605e-05
-2.69657e-05
1.46824e-05
1.69365e-05
-7.04192e-05
3.88002e-05
-3.93204e-05
4.11705e-05
-6.21765e-05
6.03263e-05
-3.11588e-05
1.81868e-05
-3.00064e-05
4.29784e-05
-5.86525e-05
6.93857e-05
-1.07332e-05
1.00492e-05
-3.82622e-06
-5.60297e-05
4.98067e-05
5.78897e-06
-3.06391e-05
-8.48572e-05
0.000109707
4.36838e-05
-4.03338e-05
-0.000105467
0.000102117
2.33814e-05
-5.97905e-06
-6.3235e-05
4.58327e-05
3.23375e-06
-1.26521e-05
9.2086e-07
8.49751e-06
2.08305e-05
-2.0774e-05
-1.08207e-05
1.07642e-05
-2.56521e-06
5.29331e-05
1.15764e-06
-5.15256e-05
-8.74899e-05
7.1592e-05
-6.91692e-06
2.28148e-05
5.65856e-06
-5.40724e-05
2.11182e-05
2.72956e-05
5.9708e-05
-5.23619e-05
3.41358e-05
-4.14819e-05
4.83723e-05
-3.57672e-05
-1.69495e-06
-1.09102e-05
4.46494e-05
-6.34508e-05
3.32352e-05
-1.44338e-05
7.34725e-05
-7.77064e-05
1.99658e-05
-1.5732e-05
5.39613e-05
1.496e-05
-7.78554e-05
8.9341e-06
-7.82148e-05
0.000109394
-5.1094e-05
1.99149e-05
-0.000119303
9.19457e-05
6.08988e-05
-3.35417e-05
-4.81085e-05
1.03206e-05
4.20565e-05
-4.26854e-06
1.14809e-05
-2.36606e-05
3.50769e-05
-2.28972e-05
3.19388e-05
-3.74964e-05
2.52037e-05
-1.96461e-05
3.61428e-05
-2.1894e-05
-1.28252e-05
-1.42355e-06
-2.18156e-06
1.56293e-05
-4.899e-05
3.55423e-05
-1.55714e-05
1.1713e-05
-5.44634e-05
5.83218e-05
-7.75124e-05
8.28713e-05
-5.35891e-06
-1.24121e-05
2.40553e-05
-3.02454e-05
1.86021e-05
-2.5707e-05
1.44213e-05
-0.000130842
0.000142127
-3.98538e-06
-3.82731e-07
-0.000100457
0.000104825
3.64069e-06
-1.92049e-06
-4.57581e-05
4.40379e-05
-5.87536e-06
-3.09995e-06
-2.80016e-05
3.69769e-05
1.30427e-05
-1.31324e-05
-6.94203e-07
7.83951e-07
6.10324e-06
-1.01158e-05
7.29979e-05
-6.89854e-05
-4.80061e-06
5.10877e-05
4.6073e-06
-5.08944e-05
-0.00010885
0.000130662
-7.49607e-05
5.31491e-05
-0.000113011
0.000101394
3.588e-05
-2.42632e-05
-9.21694e-05
6.27341e-05
1.66343e-05
1.2801e-05
-2.25168e-05
-8.58632e-07
-5.28275e-06
2.86582e-05
6.98209e-06
-1.30727e-05
1.51346e-05
-9.04398e-06
1.66415e-05
-3.25405e-05
2.20584e-05
-6.15942e-06
2.91021e-05
-2.01299e-05
-1.64103e-06
-7.33113e-06
1.89687e-05
-2.44545e-05
1.93691e-05
-1.38833e-05
2.61334e-05
-2.06225e-05
-6.90964e-06
1.39876e-06
2.32973e-05
-2.79204e-05
1.49482e-05
-1.0325e-05
3.27883e-05
-3.91576e-05
1.19633e-05
-5.59406e-06
4.68227e-05
-5.20181e-05
3.6636e-06
1.53177e-06
5.03676e-05
-4.25322e-05
-2.42884e-05
1.6453e-05
3.2194e-05
-1.98891e-05
-5.04329e-05
3.8128e-05
-8.97988e-05
0.000101408
-1.16091e-05
1.74618e-06
-9.47096e-06
-2.00626e-05
2.77874e-05
2.24672e-05
-2.29934e-05
-0.000149467
0.000149993
2.00073e-05
-1.50049e-05
-0.000108385
0.000103382
-1.83267e-05
6.23695e-05
-1.33274e-05
-3.07155e-05
-8.97251e-05
0.00011415
-1.92474e-05
-5.17755e-06
-0.000127044
0.000118455
-1.07854e-05
1.93747e-05
-9.05124e-05
4.30753e-05
3.23202e-05
1.51169e-05
2.01715e-06
-4.26716e-06
7.75058e-05
-7.52558e-05
-2.99479e-05
7.85794e-05
2.22439e-05
-7.08753e-05
-0.000114169
0.00013175
5.90368e-05
-7.66177e-05
-0.000161453
0.000204841
-4.51543e-05
1.76585e-06
-0.000199629
0.000121289
-0.000122608
0.000200948
-3.26863e-05
-1.25829e-05
4.49342e-06
4.07758e-05
8.63382e-06
-7.43637e-06
2.25255e-06
-3.45e-06
1.00769e-05
-2.20305e-05
2.54406e-06
9.40959e-06
2.93457e-05
-3.42059e-05
7.96032e-06
-3.10013e-06
3.24176e-05
-2.85871e-05
8.97236e-07
-4.72774e-06
2.88239e-05
-2.98974e-05
7.31354e-06
-6.23999e-06
3.11081e-05
-3.20706e-05
2.80682e-06
-1.84434e-06
3.24904e-05
-3.23085e-05
-6.18962e-06
6.00771e-06
3.18936e-05
-3.11214e-05
-1.48474e-05
1.40752e-05
2.73988e-05
-1.83267e-05
-2.60075e-05
1.69354e-05
-0.000118283
0.000136602
-1.83192e-05
2.69688e-05
-2.90685e-05
-3.60017e-05
3.81014e-05
3.74577e-05
-4.87763e-05
-0.000151338
0.000162657
5.04833e-05
-7.46617e-05
-9.19191e-05
0.000116098
0.000104732
-0.000116005
5.65493e-05
-4.52764e-05
0.000109961
-7.39901e-05
3.38208e-05
-6.97915e-05
3.65948e-05
-1.32299e-05
-3.29267e-05
9.56172e-06
-2.82819e-06
1.78058e-05
-3.24087e-05
1.74311e-05
-1.70659e-05
7.26833e-06
5.12427e-05
-4.14452e-05
5.54184e-06
-6.96308e-06
8.26237e-05
-8.12025e-05
2.54197e-06
2.92242e-06
8.95082e-05
-9.49726e-05
-8.64246e-06
1.31693e-05
3.41604e-05
-3.86872e-05
-3.72684e-05
4.9923e-05
-0.000224289
0.000211634
-3.62329e-05
1.07204e-05
-9.36332e-05
0.000119146
5.91329e-07
-5.44624e-06