/*--------------------------------*- C++ -*----------------------------------*\
| =========                 |                                                 |
| \\      /  F ield         | OpenFOAM: The Open Source CFD Toolbox           |
|  \\    /   O peration     | Version:  v1912                                 |
|   \\  /    A nd           | Website:  www.openfoam.com                      |
|    \\/     M anipulation  |                                                 |
\*---------------------------------------------------------------------------*/
FoamFile
{
    version     2.0;
    format      ascii;
    class       volVectorField;
    location    "0.95";
    object      U;
}
// * * * * * * * * * * * * * * * * * * * * * * * * * * * * * * * * * * * * * //

dimensions      [0 1 -1 0 0 0 0];


internalField   nonuniform List<vector> 
9072
(
(-0.00516935 -0.0126894 0)
(0.0462828 -0.00623264 0)
(0.0283983 0.00694881 0)
(-0.013597 0.00245556 0)
(-0.0132049 -0.00448009 0)
(-0.00742396 -0.0018197 0)
(-0.00842746 0.00100009 0)
(-0.00508727 0.00232771 0)
(0.0124296 -0.000136127 0)
(0.0582021 -0.00917546 0)
(0.108247 -0.0165179 0)
(0.147657 -0.0108081 0)
(0.122769 0.0185475 0)
(0.0621597 0.00784151 0)
(0.0655362 -0.0035673 0)
(0.0616484 -0.00380077 0)
(0.0891675 -0.0162512 0)
(0.108419 0.0242516 0)
(-0.181951 0.0389997 0)
(-0.25151 -0.0125239 0)
(-0.138228 -0.0119309 0)
(-0.0562257 -0.0106882 0)
(0.00309356 -0.00655923 0)
(-0.022309 0.0148729 0)
(-0.0638563 0.00582827 0)
(-0.0717109 0.0135689 0)
(-0.0620489 0.0118061 0)
(-0.0907098 0.00969246 0)
(-0.102436 0.00088604 0)
(-0.0829337 -0.00836112 0)
(-0.0466702 -0.0174722 0)
(-0.00447001 -0.0240374 0)
(0.0338785 -0.0221162 0)
(0.073625 -0.0106304 0)
(0.113668 -0.0196439 0)
(0.15489 -0.00736444 0)
(0.192792 -0.00180202 0)
(0.164199 0.0145615 0)
(0.0812018 0.0258046 0)
(-0.0238075 -0.0262524 0)
(-0.0199609 0.0825257 0)
(-0.31874 0.136279 0)
(-0.185467 -0.0809128 0)
(-0.107468 -0.0511025 0)
(-0.0442993 -0.0373534 0)
(-0.00673219 -0.0192039 0)
(-0.0224033 0.0490929 0)
(-0.0794803 0.0229632 0)
(-0.101154 0.00652347 0)
(-0.0713688 0.00977592 0)
(-0.0648898 0.015118 0)
(-0.0677885 -0.000911535 0)
(-0.0655582 -0.0171616 0)
(-0.0450562 -0.0333781 0)
(-0.00364928 -0.0457808 0)
(0.0542142 -0.0483977 0)
(0.125737 -0.042325 0)
(0.190797 -0.0387129 0)
(0.236512 -0.0235433 0)
(0.252819 0.00434252 0)
(0.206475 0.0459205 0)
(0.12611 0.0789185 0)
(-0.00809566 0.0421842 0)
(-0.194429 0.150573 0)
(-0.251223 0.141407 0)
(-0.140463 -0.11773 0)
(-0.10273 -0.0796671 0)
(-0.0424508 -0.0632264 0)
(-0.00409537 -0.0263884 0)
(-0.0207327 0.0846703 0)
(-0.103793 0.0546464 0)
(-0.138943 -0.0011736 0)
(-0.0978572 -0.0045891 0)
(-0.081054 0.0135949 0)
(-0.0836915 0.00092749 0)
(-0.0807727 -0.0218545 0)
(-0.0569903 -0.0487344 0)
(-0.0113094 -0.0710301 0)
(0.0532823 -0.0813016 0)
(0.128788 -0.0766356 0)
(0.197339 -0.0638461 0)
(0.250916 -0.0410822 0)
(0.27454 0.0105363 0)
(0.224421 0.0816318 0)
(0.128551 0.120878 0)
(0.0351707 0.132593 0)
(-0.181521 0.189779 0)
(-0.115439 0.0944058 0)
(-0.107893 -0.109668 0)
(-0.10463 -0.102132 0)
(-0.0284825 -0.0939442 0)
(0.0118475 -0.0319501 0)
(-0.0191841 0.1229 0)
(-0.121552 0.0965157 0)
(-0.149682 -0.0112918 0)
(-0.115949 -0.0193085 0)
(-0.103372 0.0120277 0)
(-0.105137 0.00117963 0)
(-0.0973804 -0.0290657 0)
(-0.0702419 -0.0661793 0)
(-0.0202904 -0.0988154 0)
(0.0522668 -0.11717 0)
(0.141598 -0.114747 0)
(0.212046 -0.0939971 0)
(0.272418 -0.0671718 0)
(0.332783 0.0157424 0)
(0.262905 0.127932 0)
(0.138952 0.168256 0)
(0.0457774 0.187147 0)
(-0.0480303 0.227876 0)
(0.0112094 0.0612538 0)
(-0.117514 -0.0715521 0)
(-0.11942 -0.128119 0)
(-0.00232966 -0.136294 0)
(0.0440074 -0.026033 0)
(-0.0161857 0.159579 0)
(-0.116035 0.137549 0)
(-0.138671 -0.0199004 0)
(-0.11782 -0.0277819 0)
(-0.11902 0.0124296 0)
(-0.123513 0.000823151 0)
(-0.116241 -0.0371211 0)
(-0.0887564 -0.0847796 0)
(-0.0338632 -0.129728 0)
(0.0562822 -0.162126 0)
(0.126658 -0.149064 0)
(0.169036 -0.118159 0)
(0.198855 -0.115534 0)
(0.308038 -0.0155661 0)
(0.320666 0.191293 0)
(0.153214 0.225688 0)
(0.049879 0.221915 0)
(0.0137538 0.234628 0)
(0.00557048 0.088834 0)
(-0.154097 -0.0277041 0)
(-0.155247 -0.168476 0)
(0.0900257 -0.218937 0)
(0.134025 0.018398 0)
(-0.0114067 0.187889 0)
(-0.0907205 0.173046 0)
(-0.115678 -0.0253233 0)
(-0.108406 -0.0261358 0)
(-0.129934 0.0173154 0)
(-0.141639 0.00218336 0)
(-0.138712 -0.0443057 0)
(-0.113065 -0.104467 0)
(-0.0377512 -0.169603 0)
(0.00606457 -0.192673 0)
(0.0901924 -0.185984 0)
(0.120568 -0.111812 0)
(0.0195906 -0.0779335 0)
(0.0310113 -0.0888079 0)
(0.287538 0.217781 0)
(0.170584 0.295782 0)
(0.0524244 0.259755 0)
(-0.00730101 0.238449 0)
(-0.0658792 0.148136 0)
(-0.218062 0.0199258 0)
(-0.195149 -0.249416 0)
(-0.0933801 -0.331894 0)
(0.130911 0.0789078 0)
(-0.00589047 0.20356 0)
(-0.0526875 0.201478 0)
(-0.0829754 -0.0254014 0)
(-0.0959759 -0.0120532 0)
(-0.138719 0.0286181 0)
(-0.160939 0.00702482 0)
(-0.166134 -0.0491909 0)
(-0.12819 -0.130382 0)
(-0.0870841 -0.189582 0)
(-0.230904 -0.176651 0)
(-0.358217 -0.167433 0)
(-0.34208 -0.0961154 0)
(-0.222642 -0.119052 0)
(-0.152473 -0.160743 0)
(0.0431696 0.12725 0)
(0.151478 0.349067 0)
(0.0627602 0.302635 0)
(-0.0141253 0.265193 0)
(-0.105266 0.210333 0)
(-0.269754 0.0713201 0)
(-0.410621 -0.216978 0)
(-0.717023 -0.357708 0)
(-0.30959 -0.04919 0)
(0.0570463 -0.10998 0)
(0.188628 0.0120514 0)
(-0.278629 0.0683199 0)
(-0.358677 -0.0311707 0)
(-0.13374 -0.0157721 0)
(-0.117508 -0.00176405 0)
(-0.272956 0.0307147 0)
(-0.398997 -0.00812485 0)
(-0.339061 -0.0408537 0)
(-0.0964648 -0.00157984 0)
(0.513152 -0.0699051 0)
(0.974994 -0.00385206 0)
(0.915742 0.0251985 0)
(0.532402 0.0680937 0)
(0.249603 0.0527135 0)
(-0.168085 -0.0221882 0)
(0.0165784 -0.0229674 0)
(-0.51114 0.0573685 0)
(-0.264631 -0.0593439 0)
(-0.00607578 -0.196452 0)
(0.0157303 0.148514 0)
(-0.588972 0.226192 0)
(-0.413957 -0.194208 0)
(-0.00905401 0.0262264 0)
(-0.348299 0.0699032 0)
(-0.533978 0.0731032 0)
(-0.822326 0.0803082 0)
(-0.405601 -0.196733 0)
(0.0443508 -0.257313 0)
(0.366614 -0.304712 0)
(0.633132 -0.102731 0)
(0.734997 0.0331076 0)
(0.798023 0.102102 0)
(0.746993 0.173683 0)
(0.230798 0.208032 0)
(-0.331547 0.132475 0)
(-0.554811 0.068369 0)
(-0.311872 -0.245817 0)
(-0.07106 -0.141372 0)
(-0.301435 0.364027 0)
(-0.650767 0.272515 0)
(-0.466175 -0.343479 0)
(-0.326499 -0.0176403 0)
(-0.4482 0.183613 0)
(-0.616257 0.16878 0)
(-0.650271 0.003292 0)
(-0.059233 -0.449497 0)
(-0.044062 -0.297767 0)
(0.0863318 -0.449714 0)
(0.511086 -0.168688 0)
(0.584778 0.0107253 0)
(0.642689 0.0968077 0)
(0.650645 0.230969 0)
(0.483548 0.494012 0)
(-0.206877 0.279159 0)
(-0.348182 0.0763944 0)
(-0.276216 -0.38244 0)
(-0.0968979 -0.0390603 0)
(-0.319553 0.492425 0)
(-0.516188 0.348082 0)
(-0.378625 -0.391694 0)
(-0.465946 -0.0377804 0)
(-0.478313 0.263427 0)
(-0.672669 0.218895 0)
(-0.442387 -0.180683 0)
(-0.0440488 -0.551811 0)
(-0.304488 -0.204618 0)
(-0.412256 -0.679246 0)
(0.53952 -0.309601 0)
(0.939051 0.0510975 0)
(0.803075 0.120527 0)
(0.588824 0.236787 0)
(0.493692 0.683325 0)
(-0.0485549 0.383895 0)
(-0.0740237 0.117247 0)
(-0.0498376 -0.437722 0)
(-0.120543 0.0350831 0)
(-0.156886 0.522114 0)
(-0.0480921 0.471853 0)
(-0.267655 -0.363204 0)
(-0.60018 -0.0141716 0)
(-0.58962 0.320953 0)
(-0.71737 0.234414 0)
(-0.285184 -0.415374 0)
(-0.123256 -0.455432 0)
(-0.468579 -0.0436743 0)
(-0.722699 -0.747111 0)
(-0.493628 -0.654897 0)
(0.271174 -0.0825146 0)
(0.346114 0.0955321 0)
(0.478276 0.361465 0)
(0.395791 0.790206 0)
(0.0279742 0.501499 0)
(0.0104657 0.0968097 0)
(0.0949864 -0.452374 0)
(-0.132896 0.0739486 0)
(-0.00387278 0.363542 0)
(0.43579 0.536829 0)
(-0.290001 -0.132439 0)
(-0.710863 0.0350285 0)
(-0.721806 0.35029 0)
(-0.727432 0.181187 0)
(-0.0552238 -0.649468 0)
(-0.22133 -0.345322 0)
(-0.427082 0.106723 0)
(-0.627304 -0.701491 0)
(-0.737032 -0.812282 0)
(-0.33445 -0.389378 0)
(0.210346 0.112561 0)
(0.219415 0.308976 0)
(0.246148 0.768331 0)
(0.130528 0.619175 0)
(0.106862 0.0505649 0)
(0.10079 -0.444522 0)
(0.0185604 0.107111 0)
(0.151686 0.236614 0)
(0.40895 0.49386 0)
(-0.166384 0.214036 0)
(-0.611062 0.162714 0)
(-0.776517 0.362592 0)
(-0.36072 -0.0943536 0)
(-0.0825597 -0.628032 0)
(-0.345651 -0.27801 0)
(-0.270092 0.125641 0)
(-0.159898 -0.571919 0)
(-0.68872 -0.809362 0)
(-0.664012 -0.589388 0)
(-0.106293 -0.0118624 0)
(-0.0836796 0.323952 0)
(-0.136037 0.709451 0)
(0.177721 0.675454 0)
(0.128809 0.0574052 0)
(0.00619962 -0.396214 0)
(0.469436 -0.236312 0)
(0.550964 0.190357 0)
(0.456599 0.462729 0)
(0.33943 0.444857 0)
(-0.246877 0.331837 0)
(-0.441447 0.335919 0)
(-0.239947 -0.235604 0)
(-0.227586 -0.555264 0)
(-0.466242 -0.251485 0)
(-0.112985 -0.107557 0)
(0.564229 -0.316624 0)
(-0.496942 -0.649407 0)
(-0.68928 -0.603376 0)
(-0.63365 -0.165852 0)
(-0.354574 0.297797 0)
(-0.271571 0.615427 0)
(0.044298 0.718191 0)
(0.0837329 0.0428697 0)
(-0.0691861 -0.340741 0)
(0.00370521 0.200454 0)
(0.00162166 0.224183 0)
(-0.0276369 -0.0167151 0)
(-0.0908129 0.0263437 0)
(-0.149372 0.0524803 0)
(-0.188996 0.0211261 0)
(-0.205742 -0.0554017 0)
(-0.197587 -0.156665 0)
(-0.495601 -0.019085 0)
(-0.782529 -0.0882672 0)
(-0.904819 -0.161323 0)
(-0.822127 -0.173392 0)
(-0.607181 -0.234821 0)
(-0.407633 -0.210503 0)
(-0.282287 0.00570909 0)
(-0.0883421 0.301285 0)
(-0.0440037 0.308756 0)
(-0.0620581 0.288596 0)
(-0.10904 0.295001 0)
(-0.292469 0.20735 0)
(-0.73347 0.0614009 0)
(-1.02077 -0.315018 0)
(-0.99967 -0.35078 0)
(0.0257011 0.163306 0)
(0.0390477 0.209899 0)
(0.0416783 0.039183 0)
(-0.0956578 0.121016 0)
(-0.1732 0.115578 0)
(-0.247512 0.0693368 0)
(-0.29744 -0.0257891 0)
(-0.669863 0.264284 0)
(-1.2216 0.3736 0)
(-1.46183 0.120429 0)
(-1.25588 -0.231859 0)
(-1.17688 -0.303591 0)
(-1.27398 -0.400147 0)
(-1.28872 -0.365058 0)
(-1.24136 -0.18467 0)
(-0.987447 0.0659554 0)
(-0.716723 0.173109 0)
(-0.547246 0.234984 0)
(-0.484295 0.343306 0)
(-0.554864 0.525443 0)
(-0.729799 0.359446 0)
(-0.857983 -0.155583 0)
(-0.983915 -0.538255 0)
(0.027923 0.0655524 0)
(0.0667535 0.181064 0)
(0.0601054 0.128493 0)
(-0.09084 0.229 0)
(-0.182606 0.204712 0)
(-0.280283 0.147931 0)
(-0.427185 0.185561 0)
(-0.787096 0.838428 0)
(-1.09841 0.599222 0)
(-0.906341 -0.14145 0)
(-0.456686 -0.709188 0)
(0.117724 -0.182001 0)
(-0.102002 -0.00262216 0)
(-0.856496 -0.143407 0)
(-1.30663 -0.238648 0)
(-1.20384 -0.174199 0)
(-0.835965 -0.0660395 0)
(-0.670694 0.0544235 0)
(-0.594728 0.227427 0)
(-0.507927 0.425318 0)
(-0.407015 0.280755 0)
(-0.446937 0.0446463 0)
(-0.183072 -0.339742 0)
(0.00270075 -0.0281648 0)
(0.0977019 0.159378 0)
(0.0267403 0.258507 0)
(-0.0871744 0.32382 0)
(-0.168823 0.299271 0)
(-0.266843 0.292189 0)
(-0.472408 0.41539 0)
(-0.584509 1.06938 0)
(-0.620007 0.588879 0)
(-0.409801 -0.344027 0)
(-0.651856 -0.665707 0)
(-0.74557 -0.808815 0)
(0.149794 -0.0312634 0)
(0.222795 0.491651 0)
(-0.476824 0.341768 0)
(-0.553857 -0.0574134 0)
(-0.895855 -0.178736 0)
(-0.0677881 -0.742697 0)
(0.846576 0.279448 0)
(0.942119 1.10762 0)
(-0.845733 0.199663 0)
(-0.461838 -0.475839 0)
(-0.209627 -0.482015 0)
(-0.035402 -0.04401 0)
(0.0381324 0.156758 0)
(0.04435 0.380057 0)
(-0.0741467 0.417528 0)
(-0.130329 0.343297 0)
(-0.160287 0.415401 0)
(-0.324121 0.588129 0)
(-0.439672 0.946587 0)
(-0.279714 0.509611 0)
(-0.384186 -0.193208 0)
(-0.807677 -0.303786 0)
(-0.891618 -1.00521 0)
(-0.743905 -1.04292 0)
(0.395966 1.00231 0)
(-0.452679 0.611829 0)
(-0.892704 0.0489657 0)
(-0.427171 -0.615877 0)
(-0.442737 -0.816043 0)
(-0.481475 -0.517071 0)
(0.161927 1.5002 0)
(0.0490806 1.14383 0)
(-0.262496 -0.649542 0)
(-0.512826 -0.256064 0)
(-0.0444783 0.0444258 0)
(0.018539 0.0300628 0)
(0.0485055 0.393871 0)
(-0.0236661 0.510755 0)
(-0.174922 0.368556 0)
(-0.198506 0.530566 0)
(-0.316319 0.759199 0)
(-0.337143 0.903942 0)
(-0.111823 0.429453 0)
(-0.330214 0.242189 0)
(-0.0633717 -0.102842 0)
(-0.182301 -1.06882 0)
(-0.430824 -1.16913 0)
(-0.2479 -0.247807 0)
(0.508751 1.70933 0)
(-0.49052 0.147571 0)
(-0.528441 -0.610148 0)
(-0.528578 -0.774704 0)
(-0.557784 -0.501605 0)
(-0.124569 0.49095 0)
(0.477515 1.31245 0)
(-0.140757 -0.324144 0)
(-0.567011 0.0209263 0)
(-0.0551656 0.157178 0)
(-0.132489 0.0671677 0)
(-0.334 0.504372 0)
(-0.496421 0.640316 0)
(-1.03189 0.678738 0)
(-1.27464 0.613439 0)
(-0.863933 0.6594 0)
(-0.43581 0.676437 0)
(-0.137023 0.280711 0)
(0.274591 -0.203864 0)
(0.788223 -0.260293 0)
(0.730785 -0.409587 0)
(0.0199776 -0.892875 0)
(-0.239359 -0.424823 0)
(0.0353373 2.1064 0)
(-0.509804 0.0733428 0)
(-0.603645 -0.631459 0)
(-0.367668 -0.774728 0)
(-0.499776 -0.611832 0)
(-0.333054 0.0270885 0)
(0.387947 1.17281 0)
(0.181252 0.463555 0)
(-0.365279 0.0964466 0)
(-0.0976715 0.438253 0)
(-0.42329 0.396848 0)
(-0.733025 0.714241 0)
(-0.966477 1.05963 0)
(-1.09819 1.04321 0)
(-0.870979 0.249771 0)
(-0.280707 0.0163754 0)
(-0.233029 0.171663 0)
(-0.00670874 0.00528544 0)
(0.522235 -0.843728 0)
(-0.343519 -0.203336 0)
(-0.453148 -0.257741 0)
(-0.48946 -0.507997 0)
(-0.717569 -0.194823 0)
(-0.476208 1.91319 0)
(-0.0975259 0.329332 0)
(-0.149423 -0.738483 0)
(-0.351846 -0.793284 0)
(-0.386741 -0.556036 0)
(-0.433331 -0.30587 0)
(0.00646573 0.597206 0)
(0.472524 0.688662 0)
(0.282995 0.382218 0)
(-0.128678 0.682462 0)
(-0.049254 0.624691 0)
(-0.105388 1.02478 0)
(-0.508038 1.12083 0)
(-0.126129 0.556065 0)
(-0.0636869 -0.0262026 0)
(-0.236194 0.210088 0)
(0.172831 -0.285704 0)
(1.11562 0.174499 0)
(-0.653787 -0.073151 0)
(-0.587446 -0.541872 0)
(-0.437284 0.0104683 0)
(-0.61265 -0.267789 0)
(-0.856416 -0.205925 0)
(-0.320708 0.303558 0)
(1.03662 0.530919 0)
(1.21322 -0.56955 0)
(0.250107 -0.233443 0)
(-0.197345 -0.314739 0)
(-0.384704 -0.239902 0)
(-0.355843 0.012965 0)
(0.136013 0.42918 0)
(0.157205 0.638239 0)
(-0.196407 0.885512 0)
(0.142115 0.199024 0)
(0.276089 1.49856 0)
(0.0436599 1.09225 0)
(-0.0428936 0.454176 0)
(0.136768 0.363025 0)
(-0.241157 -0.072541 0)
(-0.0489774 -0.798937 0)
(0.317926 -0.292247 0)
(1.3546 0.986379 0)
(1.06919 -0.224168 0)
(0.860117 -0.12621 0)
(0.0334376 0.079053 0)
(-0.0651521 -0.141446 0)
(-0.221404 -0.248318 0)
(-0.237949 -0.0636943 0)
(-0.253417 -0.159457 0)
(-0.229025 0.0491955 0)
(-0.276452 -0.131726 0)
(-0.382217 -0.0833967 0)
(-0.54179 -0.0184079 0)
(-0.517766 0.233785 0)
(-0.272176 0.500614 0)
(-0.174296 1.00897 0)
(-0.140452 0.261313 0)
(-0.38425 1.64208 0)
(-0.252185 1.174 0)
(0.526634 -0.103872 0)
(1.06557 0.150139 0)
(1.36952 0.140602 0)
(0.841714 -0.0416472 0)
(-0.166095 -0.901148 0)
(0.654859 -0.699526 0)
(1.27749 -0.866602 0)
(2.07718 0.225233 0)
(1.86747 1.89175 0)
(-0.0975531 0.0263892 0)
(-0.0682597 -0.0920069 0)
(-0.164175 0.0330985 0)
(-0.334612 -0.0572894 0)
(-0.324799 -0.0125451 0)
(-0.31645 -0.0692025 0)
(-0.341486 -0.0226879 0)
(-0.347568 0.0740761 0)
(-0.339005 0.151189 0)
(-0.255281 0.214119 0)
(-0.195846 1.3905 0)
(-0.319414 0.434731 0)
(-0.538441 1.65859 0)
(-0.531089 1.05109 0)
(-1.2423 -0.489827 0)
(-1.13747 -0.631952 0)
(-0.161543 0.293852 0)
(0.139379 0.315543 0)
(0.180541 -0.389876 0)
(-0.10263 -0.886983 0)
(0.0146896 -1.02292 0)
(0.132906 -0.504308 0)
(0.65418 2.45329 0)
(0.180234 1.2516 0)
(0.0670092 0.094357 0)
(-0.36388 0.218836 0)
(-0.428387 -0.0289213 0)
(-0.353848 -0.105409 0)
(-0.329161 -0.0708623 0)
(-0.323097 -0.0217378 0)
(-0.299019 0.030602 0)
(-0.230738 0.0779302 0)
(-0.12338 0.0742287 0)
(-0.171058 1.69102 0)
(-0.32808 0.32951 0)
(-0.326638 2.29397 0)
(-1.26527 1.99632 0)
(-1.75526 -0.60914 0)
(-1.72788 -1.03906 0)
(-1.26811 -0.416626 0)
(-0.748234 -0.176187 0)
(-0.471081 -0.54947 0)
(-0.642187 -0.832754 0)
(-0.736254 -0.974955 0)
(-1.22321 -0.116099 0)
(-1.24524 1.81859 0)
(-0.427734 1.06545 0)
(-0.192261 0.146205 0)
(-0.429338 0.402642 0)
(-0.383948 -0.0702393 0)
(-0.342651 -0.149712 0)
(-0.323219 -0.0866013 0)
(-0.305562 -0.0402359 0)
(-0.274984 -0.0100029 0)
(-0.226929 0.00834477 0)
(-0.168853 3.37145e-05 0)
(-0.219076 2.0096 0)
(-0.354152 0.434836 0)
(-0.251831 2.79068 0)
(-0.55267 2.5856 0)
(-1.09186 0.315686 0)
(-1.99712 -0.915041 0)
(-2.00102 -0.884184 0)
(-1.76481 -0.509488 0)
(-2.26621 -0.0867683 0)
(-1.99899 -0.832457 0)
(-1.96063 -0.588168 0)
(-1.84284 0.386272 0)
(-1.6502 0.806964 0)
(-0.436998 0.12282 0)
(-0.356703 0.273187 0)
(-0.427701 0.497486 0)
(-0.328817 -0.125875 0)
(-0.310115 -0.16681 0)
(-0.306145 -0.10016 0)
(-0.286059 -0.0650725 0)
(-0.257065 -0.0457905 0)
(-0.222653 -0.0360974 0)
(-0.187837 -0.040903 0)
(-0.195397 2.42465 0)
(-0.574343 0.425687 0)
(-0.394129 2.25744 0)
(-0.543592 2.69567 0)
(-0.82629 1.05191 0)
(-1.85326 0.124589 0)
(-2.88525 -0.304381 0)
(-3.01214 -0.288655 0)
(-2.74935 -0.648076 0)
(-2.7147 -0.967414 0)
(-2.54904 -0.950551 0)
(-1.77692 -0.1435 0)
(-0.884794 -0.0456101 0)
(-0.504571 -0.239024 0)
(-0.6197 0.462886 0)
(-0.47666 0.359165 0)
(-0.302941 -0.214815 0)
(-0.291662 -0.157414 0)
(-0.286425 -0.113528 0)
(-0.265833 -0.0892191 0)
(-0.242826 -0.0732007 0)
(-0.219887 -0.0645266 0)
(-0.198736 -0.0653454 0)
(-0.167683 2.46921 0)
(-0.244748 0.260571 0)
(-0.269544 2.32383 0)
(-0.412187 2.95701 0)
(-1.14045 1.89747 0)
(-2.12152 1.02006 0)
(-2.64693 -0.398843 0)
(-2.33552 -0.586188 0)
(-1.79992 -0.645453 0)
(-1.46543 -0.844769 0)
(-1.75363 -1.14148 0)
(-1.62263 -1.06567 0)
(-1.07021 -0.623698 0)
(-0.881509 -0.209649 0)
(-0.710557 0.35701 0)
(-0.351991 0.0793081 0)
(-0.254286 -0.242893 0)
(-0.276429 -0.156456 0)
(-0.264008 -0.130681 0)
(-0.247276 -0.109037 0)
(-0.230762 -0.0922037 0)
(-0.216067 -0.082114 0)
(-0.204032 -0.0796601 0)
(-0.214785 2.30398 0)
(0.190562 0.558222 0)
(0.183081 1.67372 0)
(-0.753968 3.92161 0)
(-1.63745 2.96717 0)
(-2.66354 1.85636 0)
(-3.45014 0.143262 0)
(-3.52741 -1.11218 0)
(-2.87029 -1.75521 0)
(-1.51428 -1.54612 0)
(-0.585455 -1.05133 0)
(-0.514907 -1.01445 0)
(-0.700713 -0.823888 0)
(-0.641542 -0.364724 0)
(-0.437439 -0.0480222 0)
(-0.185209 -0.143325 0)
(-0.234474 -0.18454 0)
(-0.252265 -0.159571 0)
(-0.245444 -0.143444 0)
(-0.232101 -0.124028 0)
(-0.219191 -0.105425 0)
(-0.21001 -0.0921948 0)
(-0.205093 -0.0862309 0)
(-0.0666328 2.25065 0)
(0.183435 0.713658 0)
(-0.228523 2.22958 0)
(-1.31176 4.60784 0)
(-1.5241 3.84268 0)
(-1.90524 2.56706 0)
(-2.02017 0.414744 0)
(-1.86049 -1.30646 0)
(-1.46797 -2.30005 0)
(-1.25841 -2.54838 0)
(-0.895167 -2.06304 0)
(-0.0361861 -0.968778 0)
(-0.183938 -0.73289 0)
(-0.253531 -0.396748 0)
(-0.247246 -0.180585 0)
(-0.2232 -0.144252 0)
(-0.241875 -0.156168 0)
(-0.247373 -0.16138 0)
(-0.235864 -0.156491 0)
(-0.217966 -0.138713 0)
(-0.204914 -0.115471 0)
(-0.200178 -0.0962312 0)
(-0.202181 -0.0856966 0)
(0.0852115 2.17872 0)
(-0.0511533 0.921981 0)
(-1.18473 3.89274 0)
(-0.843669 4.39532 0)
(-0.628605 3.78693 0)
(-0.101727 2.43688 0)
(0.366076 0.377632 0)
(0.83062 -1.60706 0)
(0.898746 -2.48391 0)
(0.723623 -2.43424 0)
(0.3332 -1.99804 0)
(-0.0445251 -1.41336 0)
(0.0346857 -0.679522 0)
(0.00200438 -0.303998 0)
(-0.157846 -0.15408 0)
(-0.221421 -0.120384 0)
(-0.259581 -0.138473 0)
(-0.263777 -0.169318 0)
(-0.233325 -0.181961 0)
(-0.198347 -0.159697 0)
(-0.182042 -0.123477 0)
(-0.183448 -0.0933526 0)
(-0.19495 -0.0769338 0)
(0.141014 2.27147 0)
(-0.325201 1.52762 0)
(-0.971926 4.08744 0)
(0.200024 3.49914 0)
(1.02765 3.12165 0)
(2.076 1.73588 0)
(2.81367 -0.0794468 0)
(2.92483 -1.59223 0)
(2.71157 -2.25425 0)
(2.50224 -2.0932 0)
(1.86211 -1.3109 0)
(0.847667 -0.794983 0)
(0.2395 -0.481087 0)
(0.123666 -0.110324 0)
(-0.114518 -0.0186986 0)
(-0.242984 -0.0443268 0)
(-0.313684 -0.106036 0)
(-0.317293 -0.193263 0)
(-0.234853 -0.243242 0)
(-0.157734 -0.195045 0)
(-0.140041 -0.126573 0)
(-0.155886 -0.078422 0)
(-0.183906 -0.0558485 0)
(0.515087 1.83712 0)
(-0.22968 1.78345 0)
(0.479241 3.28392 0)
(1.46895 2.76814 0)
(2.17357 1.91355 0)
(3.06034 0.748469 0)
(3.52098 -0.478132 0)
(3.65259 -1.57738 0)
(3.66358 -2.19738 0)
(3.27131 -1.74962 0)
(2.77867 -0.339667 0)
(1.6077 0.456731 0)
(0.345643 -0.00430561 0)
(0.0309882 0.0115648 0)
(-0.182996 0.160476 0)
(-0.330577 0.0726757 0)
(-0.450152 -0.0390851 0)
(-0.475427 -0.250452 0)
(-0.233375 -0.416801 0)
(-0.0408538 -0.232945 0)
(-0.0625724 -0.107643 0)
(-0.116193 -0.0390717 0)
(-0.172485 -0.015094 0)
(-0.149663 0.817897 0)
(0.358459 2.26813 0)
(0.274115 1.88725 0)
(1.41898 2.02392 0)
(2.33311 1.10765 0)
(3.10954 0.169281 0)
(3.23324 -0.66517 0)
(3.01595 -1.51859 0)
(1.9246 -1.42253 0)
(1.37977 -1.29971 0)
(1.61057 -0.34487 0)
(1.54582 1.66881 0)
(0.223144 0.651791 0)
(-0.547504 0.24837 0)
(-0.286321 0.307314 0)
(-0.458235 0.2224 0)
(-0.549777 0.0521109 0)
(-0.457251 -0.425151 0)
(-0.209357 -0.837653 0)
(0.155974 -0.277052 0)
(0.0527408 -0.0263518 0)
(-0.0746517 0.0430358 0)
(-0.169515 0.0527884 0)
(-0.308773 0.676305 0)
(0.182429 2.87998 0)
(-0.1269 1.51805 0)
(0.0877964 1.40205 0)
(0.780078 0.117244 0)
(1.85182 -0.241322 0)
(1.66267 -0.612334 0)
(0.865619 -0.524819 0)
(0.712723 -0.958683 0)
(0.805073 -1.33632 0)
(0.457955 -0.365435 0)
(0.642234 2.02088 0)
(0.40523 1.88792 0)
(0.0273363 0.316658 0)
(-0.142916 0.528292 0)
(-0.549827 0.347377 0)
(-0.2512 -0.196321 0)
(0.174152 -0.601396 0)
(0.305302 -0.849689 0)
(0.136855 -0.643934 0)
(0.202023 0.217027 0)
(-0.0648451 0.185411 0)
(-0.190738 0.146313 0)
(-0.280967 0.83795 0)
(-0.302784 2.49776 0)
(0.180565 1.90927 0)
(-0.0214339 1.27652 0)
(0.0942672 -0.580064 0)
(-0.104674 -0.0688678 0)
(-0.0510081 -0.157777 0)
(0.87739 -1.06326 0)
(1.31215 -1.6341 0)
(0.617302 -0.518111 0)
(0.253086 0.235559 0)
(-0.102254 1.64704 0)
(0.274566 2.05951 0)
(0.327379 0.458735 0)
(-0.0154232 0.83583 0)
(-0.257654 0.342048 0)
(0.218204 -0.70671 0)
(0.574301 -0.973127 0)
(0.565718 -0.710125 0)
(0.337164 -0.538497 0)
(0.104464 0.57688 0)
(-0.165715 0.356382 0)
(-0.252288 0.234636 0)
(-0.162389 0.953789 0)
(-0.406002 2.08266 0)
(0.0819036 2.04835 0)
(-0.0463906 1.32549 0)
(-0.170298 -0.201306 0)
(-0.0967737 -0.629749 0)
(-0.258722 -0.722452 0)
(-0.620827 -1.01076 0)
(-0.733391 -1.10569 0)
(-0.497854 -0.343893 0)
(-0.41129 0.792997 0)
(-0.809897 1.24089 0)
(-0.139455 1.50619 0)
(0.41704 0.511903 0)
(0.0647176 1.21381 0)
(0.312651 0.0662735 0)
(0.476678 -0.90109 0)
(0.195172 -0.933047 0)
(0.120707 -0.617384 0)
(-0.379936 -0.00790892 0)
(-0.597653 0.714914 0)
(-0.398745 0.384214 0)
(-0.342474 0.254834 0)
(-0.265495 1.1862 0)
(-0.16111 2.02064 0)
(-0.0824806 2.01299 0)
(-0.0828431 1.84325 0)
(0.0684643 -0.0580006 0)
(-0.361458 -0.164586 0)
(-1.05908 -0.283556 0)
(-1.25123 -0.877382 0)
(-1.46727 -1.24098 0)
(-1.5624 -0.853279 0)
(-0.944158 0.782076 0)
(-0.661944 0.915718 0)
(-0.173837 0.794325 0)
(-0.34249 0.815408 0)
(-0.240092 1.045 0)
(0.406705 -0.297784 0)
(-0.0187472 -0.482019 0)
(-0.544191 -0.63202 0)
(-0.996011 -0.159872 0)
(-1.03612 0.234248 0)
(-0.738916 0.304863 0)
(-0.52757 0.246547 0)
(-0.410773 0.186886 0)
(-0.00969836 1.00856 0)
(0.152251 2.01092 0)
(0.0115453 1.87808 0)
(0.232045 1.42241 0)
(0.116963 0.30789 0)
(-0.390702 0.571448 0)
(-0.733997 -0.0587269 0)
(-0.804226 -0.647112 0)
(-1.0864 -0.763679 0)
(-1.67027 -0.54654 0)
(-1.78568 0.0470805 0)
(-1.35784 0.574795 0)
(-1.15286 0.734101 0)
(-0.784052 0.618442 0)
(-0.402304 0.293701 0)
(-0.540192 0.0111591 0)
(-0.707747 -0.146977 0)
(-0.865863 -0.242994 0)
(-0.914404 -0.15557 0)
(-0.832805 0.00786082 0)
(-0.690684 0.0906635 0)
(-0.553103 0.102928 0)
(-0.443813 0.0873999 0)
(-0.0406011 0.686675 0)
(0.245007 2.19397 0)
(0.378481 1.71409 0)
(0.382943 1.26553 0)
(0.0420219 0.730225 0)
(-0.482622 1.0417 0)
(-0.481138 -0.0226473 0)
(-0.797775 -0.399596 0)
(-1.23378 -0.439 0)
(-1.56352 -0.185226 0)
(-1.66322 0.127988 0)
(-1.57444 0.348737 0)
(-1.3528 0.423278 0)
(-1.1381 0.394223 0)
(-0.940763 0.228884 0)
(-0.80041 0.0148561 0)
(-0.767462 -0.124294 0)
(-0.802954 -0.169423 0)
(-0.804103 -0.140412 0)
(-0.745847 -0.0779989 0)
(-0.652376 -0.0299024 0)
(-0.55006 -0.00913659 0)
(-0.455912 -0.00717874 0)
(-0.300314 0.842675 0)
(-0.15166 1.72388 0)
(0.370229 1.66475 0)
(0.172468 1.50419 0)
(-0.00299243 1.14442 0)
(-0.481094 1.21674 0)
(-0.480718 0.170479 0)
(-0.831299 0.0116548 0)
(-1.19929 -0.0144334 0)
(-1.50874 0.0300336 0)
(-1.62824 0.116907 0)
(-1.57301 0.194754 0)
(-1.4208 0.208912 0)
(-1.22376 0.155986 0)
(-1.05318 0.0529812 0)
(-0.933827 -0.0614202 0)
(-0.859993 -0.149255 0)
(-0.81556 -0.187174 0)
(-0.769279 -0.180574 0)
(-0.704372 -0.151432 0)
(-0.624137 -0.121596 0)
(-0.538482 -0.101326 0)
(-0.455968 -0.0914288 0)
(-0.219417 0.944729 0)
(-0.439338 1.2582 0)
(-0.394814 1.8967 0)
(0.0105286 1.31284 0)
(-0.512853 1.84767 0)
(-0.4693 1.15005 0)
(-0.615106 0.440451 0)
(-0.961332 0.378246 0)
(-1.26522 0.271479 0)
(-1.48372 0.201736 0)
(-1.58503 0.159597 0)
(-1.56846 0.118918 0)
(-1.46279 0.0614417 0)
(-1.30941 -0.0124586 0)
(-1.15261 -0.0949877 0)
(-1.01855 -0.170946 0)
(-0.913584 -0.225076 0)
(-0.830283 -0.248909 0)
(-0.755568 -0.245456 0)
(-0.680138 -0.226084 0)
(-0.602019 -0.202716 0)
(-0.523529 -0.182555 0)
(-0.448091 -0.167791 0)
(-0.183991 1.05787 0)
(-0.179126 1.85859 0)
(-0.345054 1.57905 0)
(0.0342345 1.4272 0)
(-0.596635 2.0725 0)
(-0.55325 1.13645 0)
(-0.83033 0.778162 0)
(-1.1338 0.682642 0)
(-1.40021 0.517402 0)
(-1.60357 0.356377 0)
(-1.69031 0.200035 0)
(-1.66626 0.0582043 0)
(-1.55529 -0.0700451 0)
(-1.3957 -0.172557 0)
(-1.22922 -0.249518 0)
(-1.07554 -0.303002 0)
(-0.944825 -0.332303 0)
(-0.836284 -0.338783 0)
(-0.743281 -0.327266 0)
(-0.659186 -0.305441 0)
(-0.580169 -0.280759 0)
(-0.505022 -0.258049 0)
(-0.43401 -0.238764 0)
(0.112474 0.993104 0)
(0.125498 2.52747 0)
(-0.182558 1.08163 0)
(-0.850388 2.01694 0)
(-0.752884 2.19795 0)
(-0.956956 1.30701 0)
(-1.09277 1.05251 0)
(-1.34214 0.963106 0)
(-1.64075 0.778672 0)
(-1.86057 0.50295 0)
(-1.93879 0.214708 0)
(-1.89985 -0.0299417 0)
(-1.73624 -0.2421 0)
(-1.50126 -0.362523 0)
(-1.28968 -0.424847 0)
(-1.10878 -0.45978 0)
(-0.95361 -0.463559 0)
(-0.826398 -0.447536 0)
(-0.721894 -0.420251 0)
(-0.632966 -0.388561 0)
(-0.554065 -0.357494 0)
(-0.481739 -0.329938 0)
(-0.414206 -0.30605 0)
(0.0568904 0.5796 0)
(0.223014 2.60123 0)
(-0.377991 2.14594 0)
(-1.28987 2.2539 0)
(-1.26702 1.97429 0)
(-1.2043 1.48989 0)
(-1.25892 1.11706 0)
(-1.44342 1.27697 0)
(-1.74875 1.04932 0)
(-1.95619 0.641245 0)
(-2.05225 0.226873 0)
(-2.02446 -0.114334 0)
(-1.86544 -0.483833 0)
(-1.60243 -0.639661 0)
(-1.33029 -0.650028 0)
(-1.10272 -0.644022 0)
(-0.925867 -0.614292 0)
(-0.78852 -0.567353 0)
(-0.682197 -0.517723 0)
(-0.595646 -0.471457 0)
(-0.521108 -0.431321 0)
(-0.453356 -0.398161 0)
(-0.389573 -0.370267 0)
(-0.169903 0.0909984 0)
(0.28923 2.50395 0)
(0.254138 3.14102 0)
(-0.774163 2.74127 0)
(-1.17507 1.9497 0)
(-1.04934 1.43504 0)
(-1.02232 1.13095 0)
(-1.24723 1.60591 0)
(-1.52908 1.26374 0)
(-1.71435 0.822072 0)
(-1.79492 0.272532 0)
(-1.75304 -0.216394 0)
(-1.67702 -0.651098 0)
(-1.56192 -0.88102 0)
(-1.3414 -0.919655 0)
(-1.06185 -0.868613 0)
(-0.859957 -0.776661 0)
(-0.722053 -0.686475 0)
(-0.624709 -0.608924 0)
(-0.548952 -0.547047 0)
(-0.483296 -0.498697 0)
(-0.421587 -0.461559 0)
(-0.361987 -0.431074 0)
(-0.260623 -0.0281622 0)
(0.233448 2.44423 0)
(0.415572 3.34462 0)
(0.165697 3.73563 0)
(-0.853404 2.27966 0)
(-0.960537 1.21539 0)
(-0.792638 1.24504 0)
(-0.989809 2.05186 0)
(-1.33944 1.48461 0)
(-1.52731 0.942547 0)
(-1.47351 0.237004 0)
(-1.43871 -0.248925 0)
(-1.41559 -0.665706 0)
(-1.48143 -0.958347 0)
(-1.36709 -1.19124 0)
(-1.03445 -1.13958 0)
(-0.807244 -0.949823 0)
(-0.668366 -0.799566 0)
(-0.576706 -0.688876 0)
(-0.508025 -0.612434 0)
(-0.447493 -0.559247 0)
(-0.389035 -0.520522 0)
(-0.332789 -0.4881 0)
(-0.257552 0.374425 0)
(0.222209 2.27885 0)
(0.420909 3.14613 0)
(0.560076 4.09111 0)
(-0.164887 3.2232 0)
(-0.81829 1.12901 0)
(-0.638089 1.31059 0)
(-0.982672 2.42485 0)
(-1.17273 1.68396 0)
(-1.20253 0.964172 0)
(-1.18547 0.20037 0)
(-0.98881 -0.337379 0)
(-1.07674 -0.580973 0)
(-1.30361 -0.819987 0)
(-1.38805 -1.43304 0)
(-1.05274 -1.47795 0)
(-0.79029 -1.12839 0)
(-0.651522 -0.91275 0)
(-0.554921 -0.768933 0)
(-0.479391 -0.677742 0)
(-0.413874 -0.619613 0)
(-0.354586 -0.577587 0)
(-0.301154 -0.541443 0)
(-0.204221 0.848553 0)
(0.012619 1.69643 0)
(0.374035 2.81219 0)
(0.688645 4.10811 0)
(0.509435 4.09592 0)
(-0.257857 1.52813 0)
(-0.39393 1.41475 0)
(-0.817845 2.62974 0)
(-0.998737 1.82631 0)
(-1.04823 0.90296 0)
(-0.841596 -0.114351 0)
(-0.605798 -0.378237 0)
(-0.520108 -0.397633 0)
(-0.672186 -0.551549 0)
(-0.932422 -1.42019 0)
(-0.939796 -1.86191 0)
(-0.704312 -1.29157 0)
(-0.600053 -1.02055 0)
(-0.513072 -0.854856 0)
(-0.435995 -0.750629 0)
(-0.36921 -0.682979 0)
(-0.312989 -0.632468 0)
(-0.264797 -0.590231 0)
(0.025951 1.17517 0)
(-0.0547119 1.06551 0)
(0.479262 2.62702 0)
(0.646339 3.93165 0)
(0.66344 4.35249 0)
(0.368755 2.32812 0)
(-0.0706906 1.64494 0)
(-0.235852 2.7799 0)
(-0.671087 2.06032 0)
(-0.870691 0.899778 0)
(-0.723925 -0.283881 0)
(-0.757653 -0.617808 0)
(-0.394027 -0.672633 0)
(0.0906897 -0.498006 0)
(-0.0109569 -1.02087 0)
(-0.411697 -1.86941 0)
(-0.463619 -1.34602 0)
(-0.454803 -1.08409 0)
(-0.410905 -0.924019 0)
(-0.357487 -0.815777 0)
(-0.306677 -0.738981 0)
(-0.262278 -0.67985 0)
(-0.222974 -0.632077 0)
(0.325765 0.839216 0)
(-0.204814 0.811381 0)
(-0.00113245 2.22053 0)
(0.352435 3.79742 0)
(0.642141 4.28529 0)
(0.687484 2.7481 0)
(0.262897 1.97745 0)
(0.177571 2.73082 0)
(-0.0954306 2.3577 0)
(-0.20243 1.02983 0)
(-0.229876 -0.32137 0)
(-0.388615 -0.529771 0)
(-0.425287 -1.17192 0)
(-0.0286449 -0.992324 0)
(0.149668 -0.803372 0)
(0.0359603 -1.56224 0)
(-0.234526 -1.24747 0)
(-0.284972 -1.08288 0)
(-0.285392 -0.954478 0)
(-0.264415 -0.855037 0)
(-0.235972 -0.777521 0)
(-0.206239 -0.715545 0)
(-0.177342 -0.665051 0)
(0.107797 0.239989 0)
(0.0232297 1.35392 0)
(-0.155437 2.05359 0)
(0.100448 3.3639 0)
(0.586866 3.89937 0)
(0.694173 3.07767 0)
(0.448296 2.27144 0)
(0.449247 2.66952 0)
(0.621657 2.55203 0)
(0.741352 1.10157 0)
(0.633177 -0.159688 0)
(0.327236 -0.332667 0)
(0.116726 -1.07774 0)
(-0.0673578 -1.13793 0)
(0.0800766 -0.945861 0)
(0.0933719 -1.33144 0)
(-0.0984919 -1.14032 0)
(-0.157074 -1.04796 0)
(-0.179466 -0.953245 0)
(-0.178816 -0.870145 0)
(-0.166365 -0.799299 0)
(-0.148846 -0.739299 0)
(-0.129763 -0.68861 0)
(-0.222763 0.136554 0)
(-0.084574 1.79677 0)
(-0.154194 1.99162 0)