/*--------------------------------*- C++ -*----------------------------------*\
| =========                 |                                                 |
| \\      /  F ield         | OpenFOAM: The Open Source CFD Toolbox           |
|  \\    /   O peration     | Version:  v1912                                 |
|   \\  /    A nd           | Website:  www.openfoam.com                      |
|    \\/     M anipulation  |                                                 |
\*---------------------------------------------------------------------------*/
FoamFile
{
    version     2.0;
    format      ascii;
    class       surfaceScalarField;
    location    "0.5";
    object      alphaPhi0.water;
}
// * * * * * * * * * * * * * * * * * * * * * * * * * * * * * * * * * * * * * //

dimensions      [0 3 -1 0 0 0 0];
oriented        oriented;


internalField   nonuniform List<scalar> 
17936
(
-1.42541e-06
3.14389e-06
-1.71847e-06
2.29723e-06
-2.05652e-06
-2.40709e-07
8.85251e-07
8.45055e-07
-1.73031e-06
-2.77697e-06
4.63754e-06
-1.86057e-06
-6.25995e-06
7.56754e-06
-1.30759e-06
-8.55035e-06
9.23953e-06
-6.89182e-07
-9.68703e-06
9.95156e-06
-2.64527e-07
-1.00898e-05
1.01511e-05
-6.13024e-08
-1.01746e-05
1.01879e-05
-1.33351e-08
-1.02078e-05
1.02415e-05
-3.36535e-08
-1.02886e-05
1.03438e-05
-5.51715e-08
-1.03985e-05
1.04424e-05
-4.38933e-08
-1.04633e-05
1.0446e-05
1.72987e-08
-1.03677e-05
1.02009e-05
1.66834e-07
-9.9092e-06
9.44266e-06
4.66544e-07
-8.73219e-06
7.68408e-06
1.04811e-06
-6.181e-06
4.12809e-06
2.05292e-06
-1.54556e-06
-1.28279e-06
2.82835e-06
3.31489e-06
-4.30664e-06
1.34496e-06
5.92103e-06
-5.88955e-06
-3.50856e-07
1.98794e-06
1.70407e-06
-3.73841e-06
2.38092e-06
-1.07455e-05
8.36422e-06
1.31608e-05
-7.48564e-06
-5.67515e-06
-4.80125e-06
6.39722e-06
-1.59597e-06
2.32708e-06
-1.94972e-06
6.22922e-07
-1.00028e-06
6.91904e-07
1.05988e-06
3.48943e-06
-5.24121e-06
-2.96433e-06
4.77497e-06
3.72221e-06
-5.53284e-06
-6.34281e-06
7.60465e-06
2.62203e-06
-3.88387e-06
-8.5603e-06
9.247e-06
1.40739e-06
-2.09409e-06
-9.7181e-06
1.0029e-05
5.79562e-07
-8.9047e-07
-1.02298e-05
1.03619e-05
1.78016e-07
-3.10114e-07
-1.04572e-05
1.05385e-05
7.1354e-08
-1.52597e-07
-1.06197e-05
1.07075e-05
9.92607e-08
-1.87092e-07
-1.08026e-05
1.09012e-05
1.36915e-07
-2.3548e-07
-1.09965e-05
1.10803e-05
1.16705e-07
-2.00525e-07
-1.11439e-05
1.11779e-05
1.54093e-08
-4.93349e-08
-1.11749e-05
1.11273e-05
-1.80121e-07
2.27786e-07
-1.10304e-05
1.08852e-05
-5.24841e-07
6.70071e-07
-1.07016e-05
1.05061e-05
-1.23837e-06
1.43382e-06
-1.03488e-05
1.02412e-05
-2.88499e-06
2.99257e-06
-1.00524e-05
9.33549e-06
-5.42579e-06
6.14268e-06
-7.40132e-06
4.08691e-06
-5.40491e-06
8.71934e-06
-3.38102e-07
-2.79263e-06
1.19186e-07
3.01803e-06
5.22959e-06
-7.68731e-06
3.51456e-06
-1.05554e-06
1.14907e-05
-1.24773e-05
-1.39185e-05
1.51061e-05
1.10015e-05
-7.804e-06
1.17333e-05
-1.53146e-05
-7.9392e-06
9.42332e-06
-1.48412e-06
2.18483e-06
-1.72946e-06
1.41324e-06
-1.86861e-06
4.47256e-07
1.22272e-06
6.96441e-06
-8.63439e-06
-2.97897e-06
4.62812e-06
7.27306e-06
-8.92221e-06
-6.04766e-06
7.18431e-06
5.08452e-06
-6.22117e-06
-8.04472e-06
8.67205e-06
2.7489e-06
-3.37623e-06
-9.12182e-06
9.44674e-06
1.20394e-06
-1.52886e-06
-9.69058e-06
9.88685e-06
4.68697e-07
-6.64974e-07
-1.00594e-05
1.02232e-05
2.69829e-07
-4.33699e-07
-1.03862e-05
1.055e-05
3.08835e-07
-4.72627e-07
-1.07119e-05
1.08663e-05
3.59476e-07
-5.13925e-07
-1.10064e-05
1.11246e-05
3.00287e-07
-4.18494e-07
-1.12139e-05
1.1268e-05
9.28876e-08
-1.4699e-07
-1.12812e-05
1.12485e-05
-2.69591e-07
3.02265e-07
-1.11659e-05
1.10303e-05
-8.22527e-07
9.58051e-07
-1.0841e-05
1.06011e-05
-1.69827e-06
1.93823e-06
-1.03231e-05
1.00444e-05
-3.19681e-06
3.47554e-06
-9.86578e-06
9.97475e-06
-5.95591e-06
5.84694e-06
-1.04061e-05
1.07704e-05
-9.84576e-06
9.4815e-06
-1.01235e-05
7.14594e-06
-7.22547e-06
1.02031e-05
-1.64113e-06
-3.01022e-06
-2.88875e-06
7.5401e-06
3.64384e-06
-2.81803e-06
-1.46764e-05
1.43629e-05
2.66708e-06
-2.81702e-06
1.7074e-05
-1.69263e-05
-1.08403e-05
1.21745e-05
-1.33415e-06
1.99631e-06
-1.47135e-06
2.36221e-06
-2.88717e-06
2.62043e-07
1.17777e-06
1.02196e-05
-1.16595e-05
-2.7063e-06
4.17558e-06
1.04678e-05
-1.19371e-05
-5.44706e-06
6.46762e-06
7.29514e-06
-8.3157e-06
-7.25268e-06
7.84904e-06
3.98401e-06
-4.58037e-06
-8.31081e-06
8.68601e-06
1.87462e-06
-2.24981e-06
-9.01075e-06
9.30883e-06
9.08626e-07
-1.20671e-06
-9.59389e-06
9.87187e-06
6.52292e-07
-9.30278e-07
-1.0143e-05
1.04034e-05
6.83769e-07
-9.4424e-07
-1.06473e-05
1.08676e-05
7.01359e-07
-9.21705e-07
-1.10582e-05
1.12137e-05
5.55858e-07
-7.11377e-07
-1.13301e-05
1.14043e-05
2.11631e-07
-2.85864e-07
-1.14344e-05
1.1419e-05
-3.25949e-07
3.41268e-07
-1.13583e-05
1.12536e-05
-1.07759e-06
1.18231e-06
-1.11088e-05
1.09317e-05
-2.14374e-06
2.3208e-06
-1.07357e-05
1.054e-05
-3.71858e-06
3.91433e-06
-1.03655e-05
1.02391e-05
-5.93771e-06
6.06417e-06
-1.02348e-05
1.05494e-05
-8.85314e-06
8.5385e-06
-1.11489e-05
1.11597e-05
-1.14198e-05
1.1409e-05
-9.51901e-06
6.65501e-06
-1.17146e-05
1.45786e-05
-5.99956e-06
5.90044e-06
-1.32067e-05
1.38913e-05
-4.69874e-06
2.71147e-06
1.67303e-05
-1.49663e-05
-1.33994e-05
1.4474e-05
-1.07455e-06
1.73473e-06
-1.33052e-06
3.40335e-06
-3.80757e-06
6.82421e-07
2.07627e-07
1.28622e-05
-1.37523e-05
-1.62435e-06
3.25829e-06
1.34242e-05
-1.50581e-05
-4.65889e-06
5.69115e-06
9.31288e-06
-1.03451e-05
-6.44058e-06
7.02485e-06
5.1702e-06
-5.75448e-06
-7.5206e-06
7.97006e-06
2.66095e-06
-3.11041e-06
-8.3968e-06
8.81245e-06
1.56323e-06
-1.97889e-06
-9.2199e-06
9.61613e-06
1.26868e-06
-1.66491e-06
-9.99455e-06
1.0347e-05
1.25278e-06
-1.60521e-06
-1.06653e-05
1.09427e-05
1.17261e-06
-1.45002e-06
-1.11748e-05
1.13593e-05
8.82795e-07
-1.06727e-06
-1.14956e-05
1.15844e-05
3.68123e-07
-4.56948e-07
-1.16271e-05
1.16254e-05
-3.49262e-07
3.5088e-07
-1.15827e-05
1.15032e-05
-1.27366e-06
1.35314e-06
-1.13933e-05
1.12617e-05
-2.47348e-06
2.605e-06
-1.11208e-05
1.09864e-05
-4.07547e-06
4.2098e-06
-1.08785e-05
1.08156e-05
-6.15585e-06
6.21871e-06
-1.07969e-05
1.08003e-05
-8.47802e-06
8.47455e-06
-1.08981e-05
1.11788e-05
-1.10175e-05
1.07368e-05
-1.17455e-05
1.22361e-05
-1.55609e-05
1.50703e-05
-1.27558e-05
1.25516e-05
-1.45416e-05
1.47458e-05
-1.02866e-05
5.96138e-06
1.19315e-05
-7.68982e-06
-1.53387e-05
1.59139e-05
-5.75253e-07
1.296e-06
-1.43795e-06
3.96878e-06
-3.82683e-06
1.6977e-06
-1.33602e-06
1.43326e-05
-1.46943e-05
-1.61106e-08
1.97067e-06
1.69062e-05
-1.88607e-05
-3.78598e-06
5.05142e-06
1.1481e-05
-1.27464e-05
-5.86212e-06
6.44992e-06
6.3354e-06
-6.9232e-06
-6.9692e-06
7.48144e-06
3.59459e-06
-4.10683e-06
-7.99978e-06
8.51968e-06
2.45037e-06
-2.97027e-06
-9.03131e-06
9.52358e-06
2.11318e-06
-2.60545e-06
-9.98514e-06
1.04053e-05
1.99519e-06
-2.41534e-06
-1.07752e-05
1.10893e-05
1.74878e-06
-2.06286e-06
-1.13457e-05
1.15458e-05
1.26176e-06
-1.46187e-06
-1.1693e-05
1.17912e-05
5.51459e-07
-6.49644e-07
-1.18441e-05
1.18554e-05
-3.46167e-07
3.34925e-07
-1.18293e-05
1.17718e-05
-1.42176e-06
1.47928e-06
-1.16902e-05
1.15934e-05
-2.71826e-06
2.81505e-06
-1.1492e-05
1.13985e-05
-4.32188e-06
4.4154e-06
-1.13273e-05
1.12926e-05
-6.26548e-06
6.30025e-06
-1.13064e-05
1.13639e-05
-8.44333e-06
8.38581e-06
-1.14416e-05
1.15255e-05
-1.06155e-05
1.05317e-05
-1.18453e-05
1.27977e-05
-1.39925e-05
1.30401e-05
-1.42725e-05
1.46921e-05
-1.46644e-05
1.42447e-05
-1.26131e-05
7.45641e-06
2.65057e-06
2.506e-06
-1.61026e-05
1.57184e-05
3.84192e-07
3.98206e-07
-7.48672e-07
3.47131e-06
-3.12085e-06
8.5107e-07
-2.67955e-07
1.50331e-05
-1.56162e-05
-7.56172e-07
2.14231e-06
2.06779e-05
-2.20641e-05
-3.59752e-06
4.74126e-06
1.40605e-05
-1.52042e-05
-5.54057e-06
6.15803e-06
7.53117e-06
-8.14863e-06
-6.72669e-06
7.30406e-06
4.64733e-06
-5.22471e-06
-7.89849e-06
8.49724e-06
3.53125e-06
-4.12999e-06
-9.08327e-06
9.64163e-06
3.13387e-06
-3.69223e-06
-1.01592e-05
1.06241e-05
2.85942e-06
-3.32431e-06
-1.10267e-05
1.13613e-05
2.38698e-06
-2.72159e-06
-1.16273e-05
1.18282e-05
1.66195e-06
-1.86289e-06
-1.19702e-05
1.206e-05
7.45498e-07
-8.35324e-07
-1.21046e-05
1.21106e-05
-3.21361e-07
3.1529e-07
-1.20867e-05
1.20414e-05
-1.52641e-06
1.57175e-06
-1.19823e-05
1.19165e-05
-2.89543e-06
2.96123e-06
-1.18494e-05
1.17877e-05
-4.49282e-06
4.55448e-06
-1.17428e-05
1.1728e-05
-6.3244e-06
6.33924e-06
-1.17535e-05
1.18252e-05
-8.31811e-06
8.24644e-06
-1.19477e-05
1.21106e-05
-1.04086e-05
1.02457e-05
-1.22918e-05
1.25911e-05
-1.24599e-05
1.21605e-05
-1.3225e-05
1.34994e-05
-1.37599e-05
1.34855e-05
-1.20168e-05
7.65097e-06
-7.38718e-06
1.1753e-05
-1.45708e-05
1.25787e-05
1.99214e-06
-1.63098e-06
2.1253e-06
3.03071e-06
-3.52502e-06
-3.50729e-06
5.15536e-06
1.66726e-05
-1.83206e-05
-5.95915e-06
5.72306e-06
2.27442e-05
-2.25081e-05
-5.34417e-06
5.33042e-06
1.58792e-05
-1.58655e-05
-5.61646e-06
6.06736e-06
8.71816e-06
-9.16906e-06
-6.61339e-06
7.22006e-06
5.83379e-06
-6.44046e-06
-7.85628e-06
8.49145e-06
4.75876e-06
-5.39393e-06
-9.10406e-06
9.68279e-06
4.27078e-06
-4.84951e-06
-1.02191e-05
1.07032e-05
3.80628e-06
-4.29042e-06
-1.11268e-05
1.14865e-05
3.07264e-06
-3.43234e-06
-1.1785e-05
1.20287e-05
2.08062e-06
-2.32429e-06
-1.22237e-05
1.23714e-05
9.36966e-07
-1.08472e-06
-1.2466e-05
1.25031e-05
-3.13515e-07
2.76484e-07
-1.2484e-05
1.24217e-05
-1.6299e-06
1.69216e-06
-1.23393e-05
1.22586e-05
-3.02477e-06
3.10544e-06
-1.21915e-05
1.21425e-05
-4.60237e-06
4.65137e-06
-1.21167e-05
1.21212e-05
-6.34449e-06
6.33999e-06
-1.21618e-05
1.22433e-05
-8.171e-06
8.08953e-06
-1.23704e-05
1.25493e-05
-1.00676e-05
9.88868e-06
-1.27712e-05
1.29572e-05
-1.19718e-05
1.17857e-05
-1.30511e-05
1.28553e-05
-1.35053e-05
1.37011e-05
-1.16758e-05
8.61635e-06
-1.56094e-05
1.86688e-05
-7.07874e-25
1.15599e-22
-1.62158e-22
1.63575e-20
-2.73524e-20
3.16279e-21
5.08945e-17
9.46788e-17
-1.72516e-16
-1.14526e-15
1.34816e-16
1.06057e-15
-1.17838e-19
6.63428e-20
2.0185e-20
-7.33366e-22
1.10939e-23
1.50833e-23
3.30407e-17
-1.95573e-15
1.92027e-15
1.80608e-13
-7.07125e-12
6.48921e-12
1.28728e-10
-4.08029e-10
-5.11558e-11
8.73666e-09
-4.92632e-07
4.199e-07
2.09149e-05
-2.43498e-05
3.67464e-06
2.63988e-05
-2.5607e-05
1.70457e-07
2.12524e-05
-1.97379e-05
-4.77395e-08
1.92119e-05
-1.82146e-05
-4.79102e-09
1.64186e-05
-1.38742e-05
-5.67345e-07
1.95314e-05
-2.44134e-05
-2.25677e-06
2.36198e-05
-2.43463e-05
7.28139e-07
2.57381e-05
-2.50889e-05
-6.46531e-07
1.79584e-05
-3.51313e-06
-1.44277e-05
-2.47421e-20
2.87192e-18
-3.10072e-18
8.42088e-17
-1.1945e-15
-3.62582e-18
1.08838e-15
1.86664e-13
3.90184e-13
1.22393e-14
-7.52554e-13
-3.16856e-12
6.85918e-14
-7.49932e-14
3.0407e-12
-3.77588e-15
9.40616e-16
-2.02648e-17
2.69829e-15
-7.04581e-18
6.54146e-18
-2.35157e-21
4.5746e-19
4.97481e-17
-1.77349e-13
-8.37534e-14
2.57059e-13
1.0969e-11
-3.62141e-10
-1.21409e-10
3.8849e-10
7.9685e-09
-1.11177e-07
-2.11494e-08
9.9172e-08
5.3561e-06
-5.8428e-06
-2.20579e-06
3.49271e-06
9.44505e-07
-1.18945e-07
-8.7949e-07
7.65141e-08
2.07073e-08
-8.32523e-09
-1.23562e-08
-5.30518e-10
8.59312e-09
-8.92951e-09
4.97353e-11
-2.35766e-10
9.13037e-09
-9.49962e-09
4.32664e-09
-4.38215e-09
9.99586e-09
-1.27214e-08
7.95035e-09
-4.53914e-09
2.36327e-08
-6.92879e-08
4.88745e-08
-1.53033e-09
2.40371e-07
-6.56331e-07
4.39438e-07
-1.93205e-08
1.25619e-06
-3.22116e-06
2.32566e-06
-4.03305e-07
1.50008e-05
-8.31114e-06
2.91526e-05
-3.84691e-05
-1.96461e-16
6.45551e-15
-6.661e-15
9.01559e-14
-3.70199e-12
-8.05348e-14
3.63373e-12
2.62376e-10
-1.90419e-10
2.07655e-11
-2.56276e-10
-1.13588e-09
1.75792e-11
-7.08897e-11
1.21582e-09
-2.1755e-12
2.29824e-13
-8.90916e-14
1.84948e-12
-5.58838e-15
2.51587e-16
-8.56325e-17
5.26912e-15
2.21596e-15
5.86177e-14
-3.58785e-13
2.96083e-13
1.76632e-12
-2.0045e-10
-5.83385e-10
7.00821e-10
5.66553e-09
-1.23898e-06
-1.63933e-07
3.46776e-07
2.18998e-06
-4.50144e-07
-1.04638e-06
-5.80926e-08
1.28046e-08
-7.8797e-09
-5.97679e-09
7.83111e-10
2.27248e-08
-2.41182e-08
-3.88856e-09
6.49341e-09
2.20334e-08
-2.03374e-08
1.24391e-09
-1.5228e-09
1.79304e-08
-1.52705e-08
5.05685e-09
-5.17481e-09
1.35718e-08
-1.26867e-08
5.64543e-09
-3.67017e-09
8.27665e-09
-1.94508e-09
1.11148e-09
-1.79534e-09
1.30991e-09
-2.42188e-09
1.48977e-09
-1.39288e-10
1.3218e-08
-9.74363e-08
1.19796e-07
-3.17696e-08
1.06789e-06
-8.52362e-06
2.96147e-05
-2.04471e-05
-3.36416e-14
4.54463e-14
-4.84188e-14
5.02103e-12
-3.01431e-10
-5.57143e-11
3.49804e-10
3.22854e-08
1.18568e-09
2.68702e-09
-6.19981e-08
-8.99907e-08
1.74064e-09
-1.0838e-08
8.55272e-08
-3.69958e-10
4.50273e-11
-2.81649e-11
3.09748e-10
-1.69904e-12
3.7393e-14
-1.23186e-13
1.76727e-12
-7.15196e-16
8.27447e-15
-1.22157e-13
7.71004e-14
-5.99315e-12
2.04787e-10
-2.83521e-10
6.83345e-11
2.86367e-09
-1.03143e-07
-1.80197e-07
8.58353e-09
1.48458e-07
-8.83758e-08
3.61036e-08
-1.83531e-08
5.45225e-10
-3.77351e-10
-2.65238e-10
7.45915e-11
3.17419e-10
-3.64492e-11
-3.28669e-10
5.95505e-11
4.61751e-12
-2.9803e-12
1.02719e-11
-1.27856e-11
3.5136e-15
-4.10115e-15
3.07081e-15
-2.8134e-15
1.01594e-14
-5.71174e-14
6.28343e-14
-1.48117e-14
4.78772e-13
-5.17714e-12
5.3377e-12
-5.98846e-13
7.95003e-11
1.31322e-12
1.29664e-10
-3.10433e-12
4.9917e-11
-4.20919e-09
4.16935e-09
-3.69505e-12
2.16588e-07
-4.9747e-06
1.24128e-05
-5.49011e-06
-4.08582e-14
1.28318e-13
7.90305e-15
-2.70384e-13
1.2318e-10
-1.25506e-10
3.48423e-12
-1.39052e-06
8.1707e-06
1.27414e-05
-5.70085e-05
-6.32023e-06
5.05828e-09
-1.05029e-06
-1.06527e-05
-1.42947e-08
3.42587e-09
-2.30901e-09
1.04821e-08
-1.19178e-10
2.21394e-12
-1.76887e-11
1.31946e-10
-9.48878e-14
-2.61983e-14
-4.57371e-14
3.96472e-14
-1.65234e-13
5.66392e-12
-9.52563e-12
2.80923e-12
2.62135e-11
-1.67872e-09
-1.12708e-09
2.01273e-09
4.33218e-09
-3.10222e-09
7.54766e-09
4.32087e-10
2.46912e-11
-4.78689e-11
-3.80797e-11
4.27326e-11
8.11316e-11
-1.57874e-10
-1.95791e-11
7.5332e-11
2.333e-10
-1.51864e-10
1.9433e-11
-1.17575e-10
5.16287e-14
-4.39106e-15
1.61174e-14
-6.3343e-14
4.6593e-15
-1.04311e-14
7.80372e-15
-2.08005e-15
6.20385e-14
-8.00931e-13
7.96658e-13
-2.5528e-15
7.18465e-13
-2.54048e-13
2.75052e-12
-1.23355e-14
-1.35345e-13
7.96627e-12
1.51705e-12
-5.96176e-13
6.31597e-09
-4.26889e-07
1.80982e-06
-5.50064e-07
-1.72812e-13
1.88006e-13
1.0356e-13
-2.01526e-12
2.56921e-12
-1.91143e-13
5.58813e-14
-1.35315e-05
1.73393e-05
6.67092e-05
-6.60504e-05
-1.71148e-05
1.19733e-05
7.30129e-05
-9.39372e-05
1.10152e-07
5.59133e-08
-5.38019e-10
-1.99401e-07
-2.00521e-09
3.15942e-11
-6.63883e-10
2.60306e-09
-2.74042e-13
-2.95688e-15
-8.63373e-14
2.34509e-13
5.64906e-14
-3.18678e-13
-1.26692e-12
1.26275e-12
1.49069e-11
-5.02502e-10
-2.62559e-09
3.09975e-09
8.87213e-10
-3.30105e-10
-7.29577e-09
1.7292e-08
1.21247e-10
-4.73149e-10
-8.03264e-11
4.1071e-10
1.98639e-09
-8.69332e-09
-7.72038e-10
7.32448e-09
1.10699e-08
-5.5323e-09
1.02103e-09
-7.3958e-09
1.23431e-12
-1.08838e-14
3.15723e-13
-1.54336e-12
1.62092e-15
-9.77154e-16
2.52173e-15
-3.14396e-15
8.00322e-16
-7.6392e-16
2.76339e-15
-2.79724e-15
7.41224e-16
2.31866e-15
9.96795e-15
-1.40504e-14
-1.29524e-13
1.75717e-11
3.2607e-12
-1.99357e-11
8.9416e-09
-2.00067e-07
1.15064e-07
-8.89004e-07
-1.63572e-13
1.97366e-13
1.23243e-13
-2.30634e-11
2.72629e-08
1.03437e-10
-2.73497e-08
-1.91578e-05
2.37658e-05
6.5415e-05
-6.73405e-05
-2.38031e-05
2.21582e-05
9.21337e-05
-9.04723e-05
-4.85328e-06
6.34112e-08
1.16445e-06
-2.09725e-06
-1.72771e-09
1.44993e-11
-5.1033e-09
6.72732e-09
-9.04583e-14
-2.72339e-14
-3.34147e-13
4.52125e-13
1.09349e-12
-8.56431e-11
-5.44139e-12
9.24409e-11
4.78333e-09
-7.61435e-08
-3.32597e-08
2.87357e-07
3.18682e-08
-1.5182e-09
-1.52635e-07
4.17269e-07
3.37076e-09
-2.53208e-08
-4.31386e-09
2.57466e-08
1.88452e-07
-2.12532e-07
-4.92973e-08
8.13615e-08
1.79153e-07
-9.51083e-08
1.67834e-07
-2.47073e-07
2.74712e-11
-2.10995e-13
6.6553e-12
-3.39413e-11
1.29604e-14
-7.44575e-16
5.40751e-15
-1.73732e-14
5.44697e-16
-4.30238e-16
2.19293e-15
-1.77939e-15
-3.10456e-17
4.10178e-15
1.5717e-14
-1.98365e-14
-5.94021e-13
5.72365e-11
3.22919e-11
-8.92725e-11
-6.34569e-09
3.21301e-08
2.54365e-06
-4.18814e-06
-2.12509e-06
2.21193e-09
4.44616e-07
-3.09539e-07
8.19466e-06
1.38888e-06
-5.20177e-06
-2.62466e-05
2.78531e-05
6.90793e-05
-7.06878e-05
-2.68115e-05
2.3758e-05
8.86862e-05
-8.56349e-05
-2.33898e-06
-1.10208e-07
1.69295e-06
-4.13466e-07
1.78392e-09
-6.09642e-12
-3.38504e-09
1.1295e-09
4.82816e-14
-4.17649e-13
-2.40697e-13
3.05821e-13
1.10095e-11
-5.23639e-10
-1.91835e-10
7.21591e-10
6.60687e-09
-1.72054e-07
-4.26069e-07
8.6978e-07
2.60705e-07
-1.14534e-07
-1.52039e-06
1.44187e-06
3.30837e-08
-1.11809e-07
-5.44472e-08
1.1613e-07
1.7093e-07
-1.48214e-07
-6.44696e-08
4.97737e-08
1.45477e-07
-1.04525e-07
2.73107e-07
-3.00688e-07
2.82573e-10
-2.52742e-12
1.1916e-10
-3.99032e-10
1.98406e-13
-1.59281e-15
7.85768e-14
-2.75207e-13
3.12419e-16
-1.88841e-16
1.60517e-15
-1.49016e-15
1.01443e-16
-1.07887e-14
1.44004e-14
-3.07294e-15
5.20753e-13
-4.95812e-11
7.88033e-11
-2.90149e-11
5.05336e-09
1.26347e-07
7.24298e-06
-1.06759e-05
-5.44381e-06
-3.19653e-06
8.64034e-06
-1.30354e-05
1.89176e-05
4.83118e-06
-1.07134e-05
-2.63882e-05
3.03123e-05
2.04812e-05
-2.44032e-05
-2.76065e-05
2.15124e-05
2.1163e-05
-1.49396e-05
-1.65862e-05
1.43699e-05
1.52056e-05
-1.29889e-05
-1.40713e-05
1.47313e-05
9.49783e-06
-1.01577e-05
-1.58684e-05
1.72421e-05
7.02554e-06
-8.39916e-06
-1.86984e-05
2.01379e-05
6.0202e-06
-7.45973e-06
-2.15092e-05
2.27865e-05
5.41512e-06
-6.69243e-06
-2.39315e-05
2.48914e-05
4.7545e-06
-5.7144e-06
-2.56236e-05
2.61179e-05
3.76051e-06
-4.25477e-06
-2.64007e-05
2.65336e-05
2.54676e-06
-2.67966e-06
-2.65931e-05
2.66285e-05
1.25769e-06
-1.29302e-06
-2.6703e-05
2.68868e-05
-1.79428e-07
-4.42587e-09
-2.70389e-05
2.71773e-05
-1.70425e-06
1.5659e-06
-2.72817e-05
2.73189e-05
-3.18946e-06
3.15223e-06
-2.72549e-05
2.70948e-05
-4.72789e-06
4.88795e-06
-2.69187e-05
2.68215e-05
-6.34028e-06
6.4375e-06
-2.68501e-05
2.70164e-05
-7.99906e-06
7.83275e-06
-2.73203e-05
2.77449e-05
-9.70621e-06
9.28157e-06
-2.82779e-05
2.88881e-05
-1.15647e-05
1.09545e-05
-2.9517e-05
3.00693e-05
-1.38901e-05
1.33378e-05
-3.10626e-05
3.42217e-05
-2.14871e-05
1.8328e-05
1.21643e-05
-3.57537e-19
4.9256e-06
-1.83273e-05
1.23193e-05
2.03078e-05
-3.39115e-06
-1.82183e-06
5.69086e-08
5.34138e-06
-6.23956e-09
4.50788e-08
1.14059e-06
3.65136e-06
-7.68822e-19
-2.04191e-06
1.89248e-06
8.58622e-06
-1.03184e-14
-1.96311e-06
2.48838e-06
9.16978e-06
-2.66562e-11
-3.20132e-06
3.92211e-06
9.29654e-06
-2.34229e-08
-4.88456e-06
6.28348e-06
9.01011e-06
-2.41942e-06
-8.00254e-06
1.01148e-05
8.29334e-06
-3.13022e-06
-1.26546e-05
1.56285e-05
6.964e-06
-3.42248e-06
-1.89739e-05
2.2481e-05
4.81994e-06
-3.36593e-06
-2.57996e-05
2.85299e-05
2.53248e-06
-2.57595e-06
-3.02956e-05
3.09311e-05
7.80607e-07
-9.29662e-07
-3.0884e-05
3.02593e-05
-7.30928e-07
1.35559e-06
-2.92946e-05
2.80508e-05
-1.80363e-06
3.04743e-06
-2.69987e-05
2.65421e-05
-2.76664e-06
3.22318e-06
-2.65506e-05
2.68663e-05
-4.62548e-06
4.30978e-06
-2.74316e-05
2.80671e-05
-6.4796e-06
5.84414e-06
-2.8552e-05
2.88868e-05
-7.83267e-06
7.49786e-06
-2.9172e-05
2.94993e-05
-8.8865e-06
8.55919e-06
-2.9983e-05
3.07537e-05
-1.0124e-05
9.35325e-06
-3.19528e-05
3.37369e-05
-1.16195e-05
9.83543e-06
-3.63209e-05
3.98351e-05
-1.31393e-05
9.62511e-06
3.81154e-19
4.30569e-19
-8.11723e-19
1.48089e-15
-4.62517e-13
4.67215e-13
-6.38535e-15
7.83122e-11
2.42699e-16
-7.85777e-11
2.65279e-13
-6.45412e-20
1.19423e-19
-1.46447e-19
7.60507e-20
-2.33194e-19
3.83444e-19
-1.44961e-19
3.39429e-19
-4.58066e-19
-1.6602e-20
-1.58775e-19
2.00946e-21
1.53305e-18
-1.03665e-16
1.01776e-16
3.56291e-19
5.00556e-15
-1.70667e-13
1.66776e-13
-1.07879e-15
4.11898e-12
-7.15712e-11
9.38273e-11
-2.63974e-11
2.36919e-10
-2.87164e-10
6.42472e-09
-6.39016e-09
2.64799e-10
-2.51878e-10
1.15719e-09
-1.20274e-09
2.54656e-10
-4.97869e-10
5.44214e-10
-3.18762e-10
8.09972e-09
-2.32229e-07
2.26026e-07
-1.69969e-09
1.3689e-07
1.15384e-06
5.74339e-07
-1.53605e-09
-4.75551e-06
1.1117e-05
-3.41975e-06
-1.76649e-08
-2.05846e-05
2.87256e-05
-3.84789e-06
3.38642e-07
-2.92837e-05
2.69922e-05
-4.90232e-06
7.19385e-06
-2.49152e-05
2.38021e-05
-5.33396e-06
6.44708e-06
-2.36915e-05
2.4829e-05
-6.48736e-06
5.3499e-06
-2.67377e-05
2.86736e-05
-7.68416e-06
5.74823e-06
-3.0329e-05
3.16137e-05
-8.65785e-06
7.37315e-06
-3.26494e-05
3.37259e-05
-8.48575e-06
7.40922e-06
-3.51296e-05
3.69568e-05
-6.94332e-06
5.1161e-06
-4.0912e-19
3.63977e-19
7.68495e-21
1.40094e-20
-1.29266e-18
1.25783e-18
2.08299e-20
2.31812e-16
4.73815e-17
-2.79222e-16
2.84609e-20
-1.4176e-20
2.50393e-19
-3.73075e-19
3.64419e-19
-4.8299e-19
7.70638e-19
-7.68515e-19
1.02303e-18
-7.92229e-19
3.54888e-19
-5.41584e-19
1.19643e-18
5.36586e-19
-1.18393e-18
7.84469e-21
1.78279e-19
2.69062e-20
2.52375e-16
-1.78735e-16
1.36797e-18
-9.1978e-15
9.0076e-15
8.29888e-17
-8.71374e-19
4.63149e-10
-2.41407e-09
4.10364e-09
-5.02609e-10
3.24895e-09
-3.10269e-09
3.19629e-09
-4.01072e-11
1.75582e-09
-7.10713e-10
5.01279e-10
-6.45318e-10
3.73946e-10
-3.51615e-10
1.90284e-09
-1.36609e-09
6.53072e-10
-4.02133e-10
1.47962e-09
-1.17144e-09
7.99098e-11
7.83795e-11
5.2463e-10
-6.31491e-10
4.25087e-11
-3.15861e-09
3.82836e-09
-5.91943e-10
1.62965e-07
2.80879e-07
-1.48013e-07
-6.44367e-10
-2.72697e-06
7.61956e-06
-4.70423e-06
-8.08311e-08
-1.58333e-05
2.60708e-05
-6.40276e-06
1.49346e-06
-2.72912e-05
2.6421e-05
-5.36283e-06
6.23304e-06
-2.5887e-05
2.58539e-05
-5.71974e-06
5.75284e-06
-2.65053e-05
2.77281e-05
-5.88413e-06
4.66132e-06
-2.91947e-05
3.07348e-05
-3.61494e-06
2.07479e-06
-2.42518e-19
8.92898e-20
3.12782e-21
-5.05272e-21
1.20402e-20
-1.64296e-20
1.07477e-20
-2.35132e-20
3.63466e-20
-4.62424e-20
4.62313e-20
-1.02496e-19
2.1631e-19
-3.31303e-19
2.74273e-19
-3.60227e-19
4.5901e-19
-1.06821e-18
9.62691e-19
-3.3518e-19
-4.79339e-20
-1.70051e-18
1.77966e-18
5.20309e-19
-3.44102e-19
-3.47432e-19
5.37489e-20
-2.63368e-18
7.93722e-18
1.46155e-18
-1.34979e-17
-1.05404e-17
7.68501e-17
2.44811e-17
-2.00823e-17
-5.59416e-17
3.18156e-17
3.21433e-17
-1.34207e-17
-1.57325e-15
1.17218e-14
1.94408e-13
-2.05062e-13
-7.06967e-15
2.38297e-15
2.70596e-14
-3.9928e-14
-3.51437e-15
-3.52185e-14
2.76348e-11
-2.74737e-11
7.1142e-14
-1.17285e-12
8.86232e-12
-7.71167e-12
-6.282e-15
2.24326e-15
1.91785e-13
-1.91987e-13
-4.5633e-11
3.003e-10
3.51452e-10
-2.87501e-12
-5.21098e-10
2.30503e-11
6.32812e-10
-1.00354e-12
-6.30486e-13
2.60442e-11
-3.76951e-11
4.81998e-12
9.03833e-11
-4.02438e-08
4.0156e-08
-4.35033e-13
1.11544e-07
7.22916e-07
-1.41676e-07
-3.70827e-12
-5.64753e-06
1.53517e-05
-5.13822e-06
-4.26932e-09
-2.65023e-05
3.16333e-05
-5.12239e-06
2.27092e-06
-3.17677e-05
3.05629e-05
-2.17565e-06
3.38046e-06
6.01351e-20
-1.85301e-19
4.71723e-22
-1.60356e-21
4.47172e-21
-6.2538e-21
3.3339e-21
-1.06978e-20
2.15367e-20
-3.59994e-20
2.44227e-20
-4.4132e-20
7.22529e-20
-2.13547e-19
1.54694e-19
-8.74228e-20
4.04423e-20
-8.00564e-19
6.137e-19
8.93667e-20
-3.24397e-19
-1.56076e-18
1.19041e-18
4.68892e-19
1.01386e-18
4.04521e-19
-1.07735e-18
-1.17677e-17
2.94792e-17
2.91845e-17
-3.97096e-17
-4.81835e-17
4.32674e-17
4.15118e-17
-5.3834e-17
-3.76568e-17
2.07384e-13
1.22502e-15
-2.0858e-13
-3.24853e-12
3.72764e-12
3.36897e-12
-2.83443e-12
-1.24141e-12
1.2072e-12
5.5352e-14
-4.39364e-14
-1.8866e-11
2.33426e-11
3.29818e-11
-2.06409e-11
-2.04348e-11
4.12242e-12
2.41871e-11
-3.22208e-11
-1.86921e-13
1.85729e-13
2.00529e-13
-2.03578e-13
-1.5025e-12
1.85981e-12
2.8696e-12
-2.60898e-12
-8.70475e-13
9.17827e-14
1.8264e-12
-1.02181e-12
-7.72303e-13
1.41485e-12
8.37115e-14
-7.84806e-13
-2.8771e-12
4.03154e-12
3.42398e-14
-6.73416e-12
-3.41983e-12
3.33527e-12
2.9657e-12
3.00158e-14
-3.22921e-12
2.87051e-11
-2.1942e-11
-2.04607e-12
-1.42993e-12
-7.1132e-08
7.12821e-08
-1.44775e-10
-2.44392e-08
1.22704e-06
2.70214e-07
-3.1318e-12
2.1671e-19
-1.17252e-19
4.0342e-23
-3.89454e-22
1.28331e-21
-1.64334e-21
7.46303e-22
-3.40824e-21
7.50747e-21
-1.4898e-20
8.43637e-21
-1.36631e-20
1.77236e-20
-1.0435e-19
6.61794e-20
-8.27123e-21
-2.02598e-20
-4.34124e-19
2.81894e-19
8.4072e-20
-1.71553e-19
-8.12664e-19
5.06006e-19
1.64023e-19
9.13301e-19
1.14673e-18
-5.14129e-19
-7.60199e-18
2.42564e-17
3.77451e-17
-2.24569e-17
-3.52209e-17
3.86948e-17
5.73133e-17
-4.02376e-17
-3.74858e-17
2.83785e-17
3.66361e-17
-4.08484e-17
-3.2039e-17
3.12303e-16
4.90665e-14
-4.93404e-14
-3.74634e-15
8.85944e-14
1.05763e-13
-1.77731e-13
-5.39492e-14
6.40187e-16
8.91473e-14
-3.5841e-14
-2.67355e-17
2.0323e-17
3.67749e-17
-3.46253e-17
-1.44235e-13
4.23322e-13
2.4159e-13
-4.21875e-13
-8.56771e-13
1.02264e-12
1.46769e-12
-4.31319e-13
-9.23842e-14
1.82356e-15
9.44449e-14
-4.44601e-15
-1.24026e-15
2.73146e-11
5.29261e-12
-2.24049e-16
-2.59842e-11
2.85085e-11
8.55328e-12
-1.07729e-11
-3.17561e-11
1.02119e-11
5.92848e-12
-5.58112e-12
-5.08512e-12
4.56065e-12
2.37114e-13
-1.50965e-12
-4.35633e-11
6.5793e-11
1.13899e-12
1.13415e-13
-1.55527e-11
1.06696e-11
-4.04875e-14
4.89025e-12
5.17661e-20
-2.09199e-20
4.12533e-24
-6.36387e-23
2.53526e-22
-3.09707e-22
1.17275e-22
-7.75895e-22
1.77397e-21
-4.52405e-21
2.32844e-21
-2.85069e-21
2.01505e-21
-3.95833e-20
2.24501e-20
2.55907e-21
-1.3857e-20
-1.68979e-19
9.44828e-20
3.63017e-20
-5.88926e-20
-2.91054e-19
1.55944e-19
4.58625e-20
7.3979e-20
8.33314e-20
7.94247e-21
-8.80886e-19
3.54551e-18
8.80285e-18
-2.45123e-18
-6.24469e-18
1.19547e-17
2.08679e-17
-1.35268e-17
-3.27722e-17
4.31852e-17
5.55726e-17
-1.75266e-16
-3.70774e-15
5.67989e-14
3.9631e-14
-1.88272e-16
-8.15993e-14
6.5938e-14
1.37342e-13
-1.80316e-15
-1.23329e-14
4.96386e-16
1.59012e-14
-4.15257e-16
-1.90047e-17
2.00593e-17
3.38092e-17
-3.84088e-17
-8.98765e-18
2.56821e-13
2.24892e-13
-1.15532e-17
-2.45676e-13
2.44943e-13
4.75815e-13
-2.82293e-13
-5.12658e-14
2.69132e-16
1.13189e-14
-1.77712e-14
-2.32287e-16
1.80835e-16
1.92938e-16
-1.50003e-16
-2.08351e-16
2.4394e-16
4.53419e-16
-5.27378e-16
-2.81852e-16
3.35832e-16
2.91854e-16
-4.29694e-16
-1.85284e-15
3.63775e-10
1.23102e-11
-2.54099e-15
-1.47649e-09
1.21435e-09
2.35576e-11
-5.5119e-10
-5.13014e-10
1.22605e-11
-8.96513e-12
2.74814e-11
7.95133e-21
-2.8237e-21
2.5123e-25
-5.77153e-24
3.14772e-23
-4.10098e-23
1.36602e-23
-1.16863e-22
2.49457e-22
-1.16003e-21
5.62118e-22
-2.19737e-22
-2.57667e-22
-1.20211e-20
6.02557e-21
1.66576e-21
-5.12126e-21
-4.93913e-20
2.41627e-20
1.07989e-20
-1.51988e-20
-7.82525e-20
3.68531e-20
1.2352e-20
-3.43895e-21
-1.19213e-20
8.94502e-21
-3.56528e-20
1.98177e-19
5.64023e-19
-1.1575e-19
-5.82534e-19
6.12339e-18
9.66124e-18
-5.11459e-18
-5.85772e-17
8.93457e-17
1.81799e-16
-6.85037e-17
-1.76988e-17
3.87355e-18
9.09393e-18
-7.09868e-18
-1.77475e-18
1.8426e-18
4.40954e-18
-3.80454e-18
-2.25637e-18
1.11254e-17
1.69674e-17
-1.36473e-17
-2.01414e-17
2.11482e-17
3.89237e-17
-3.61486e-17
-1.3318e-17
7.39236e-18
1.58933e-17
-1.68778e-17
-3.41039e-18
3.61531e-18
9.10742e-18
-7.42593e-18
-3.96404e-18
4.45262e-18
1.94887e-17
-1.8052e-17
-8.89866e-17
2.66579e-16
1.94924e-16
-1.86927e-16
-5.08751e-16
7.49168e-16
6.88791e-16
-6.1762e-16
-8.33265e-16
2.50242e-14
2.76516e-15
-3.14305e-14
-1.9118e-13
2.66801e-12
8.23753e-14
-8.73148e-13
-2.86581e-10
2.11813e-09
6.01103e-10
-1.19552e-11
-1.09657e-09
2.37804e-11
6.63236e-11
-3.39446e-13
9.13615e-22
-2.61294e-22
-4.75374e-24
-2.11479e-25
1.74379e-24
-4.66709e-24
1.84434e-24
-6.00111e-24
-1.0052e-24
-2.67702e-22
1.21415e-22
3.09e-23
-1.6739e-22
-2.844e-21
1.26371e-21
5.55755e-22
-1.33326e-21
-1.10601e-20
4.73073e-21
2.40071e-21
-3.08087e-21
-1.6276e-20
6.72125e-21
2.67804e-21
-1.34775e-21
-5.1775e-21
2.53661e-21
4.60466e-23
7.28631e-21
2.17531e-20
-3.46579e-21
-3.13266e-20
3.69961e-19
1.01901e-18
-1.28792e-19
-8.10355e-19
8.63055e-19
3.73307e-18
-4.16437e-19
-6.95186e-19
7.09027e-19
2.44226e-18
-7.19666e-19
-9.54642e-19
1.33095e-18
3.21271e-18
-1.09154e-18
-2.36721e-18
4.27049e-18
9.4944e-18
-3.16429e-18
-6.61027e-18
7.18749e-18
2.04606e-17
-6.7101e-18
-7.1378e-18
5.54473e-18
1.52758e-17
-5.45124e-18
-3.16962e-18
3.23773e-18
5.70553e-18
-3.76304e-18
-6.19624e-18
1.10165e-17
1.72814e-17
-8.2984e-18
-2.12066e-17
3.79841e-17
7.36451e-17
-2.30779e-17
-7.71573e-17
2.31207e-16
4.116e-16
-3.43553e-16
-2.40616e-16
7.46879e-13
8.99149e-14
-4.85551e-14
-1.82267e-12
2.73723e-12
3.36861e-12
-3.59901e-12
-7.27531e-13
8.45094e-12
1.34502e-11
-5.31386e-11
-9.359e-12
1.0858e-12
1.52055e-12
5.55638e-12
6.6716e-23
-1.62237e-23
-5.26441e-25
2.92224e-26
-2.10771e-26
-8.04605e-25
3.31348e-25
2.6208e-25
-2.47202e-24
-5.20182e-23
2.09761e-23
1.30835e-23
-4.6293e-23
-5.26937e-22
2.05409e-22
1.22793e-22
-2.51852e-22
-1.88668e-21
6.99517e-22
4.00658e-22
-4.8195e-22
-2.58506e-21
9.22294e-22
4.27941e-22
-2.64268e-22
-1.09348e-21
4.22475e-22
8.84861e-23
1.779e-22
3.93177e-22
4.27742e-24
-9.1126e-22
2.71246e-21
9.4788e-21
-1.5918e-21
-8.33923e-21
2.19911e-20
7.14628e-20
-1.40156e-20
-3.84718e-20
4.65468e-20
1.78631e-19
-3.20728e-20
-5.24509e-20
6.73027e-20
2.3564e-19
-4.61138e-20
-1.27226e-19
2.94244e-19
8.06159e-19
-1.98319e-19
-4.72419e-19
5.02394e-19
1.78606e-18
-4.22647e-19
-4.66276e-19
3.31775e-19
1.36988e-18
-3.09641e-19
-2.81031e-19
2.89793e-19
9.91745e-19
-2.67042e-19
-5.2308e-19
1.04993e-18
2.81284e-18
-9.29031e-19
-1.47816e-18
2.13651e-18
6.47655e-18
-1.92238e-18
-5.62589e-18
6.61133e-17
2.56059e-16
-8.30441e-17
-4.78009e-17
3.71156e-15
1.33816e-14
-1.43135e-14
-2.03809e-15
3.42706e-15
3.59845e-12
-5.51104e-14
7.55811e-13
-4.82287e-10
2.71118e-10
-3.15827e-11
1.20445e-09
-1.7592e-10
-4.1945e-11
-5.07766e-09
4.26732e-24
-1.38002e-24
-3.82918e-26
6.59013e-27
-6.91263e-27
-1.27739e-25
4.57314e-26
7.50883e-26
-5.75851e-25
-7.91357e-24
2.77484e-24
2.57293e-24
-7.91662e-24
-7.45114e-23
2.50198e-23
1.85998e-23
-3.40677e-23
-2.40267e-22
7.61423e-23
4.91664e-23
-5.59868e-23
-3.04147e-22
9.23963e-23
4.98485e-23
-3.36858e-23
-1.47368e-22
4.65468e-23
1.57338e-23
-2.98705e-24
-1.09979e-23
5.79741e-24
-1.68797e-23
6.29436e-23
2.28694e-22
-3.06723e-23
-1.93454e-22
4.96423e-22
1.87039e-21
-2.52533e-22
-8.70298e-22
1.12409e-21
4.82236e-21
-6.59042e-22
-1.39836e-21
2.23521e-21
8.11357e-21
-1.23949e-21
-5.2694e-21
1.27447e-20
4.02325e-20
-6.79942e-21
-1.94186e-20
2.01946e-20
8.46479e-20
-1.43035e-20
-1.78299e-20
1.33911e-20
6.10868e-20
-1.07744e-20