/*--------------------------------*- C++ -*----------------------------------*\
| =========                 |                                                 |
| \\      /  F ield         | OpenFOAM: The Open Source CFD Toolbox           |
|  \\    /   O peration     | Version:  v1912                                 |
|   \\  /    A nd           | Website:  www.openfoam.com                      |
|    \\/     M anipulation  |                                                 |
\*---------------------------------------------------------------------------*/
FoamFile
{
    version     2.0;
    format      ascii;
    class       volScalarField;
    location    "0.5";
    object      alpha.water;
}
// * * * * * * * * * * * * * * * * * * * * * * * * * * * * * * * * * * * * * //

dimensions      [0 0 0 0 0 0 0];


internalField   nonuniform List<scalar> 
9072
(
1
1
1
1
1
1
1
1
1
1
1
1
1
1
1
1
1
1
0.893171
0.896458
0.969181
0.999279
0.999303
1
1
1
1
1
1
1
1
1
1
1
1
1
1
1
1
1
1
1
0.991134
0.999924
0.964813
0.89822
1
1
1
1
1
1
1
1
1
1
1
1
1
1
1
1
1
1
1
1
1
0.850108
0.840819
1
1
1
1
1
1
1
1
1
1
1
1
1
1
1
1
1
1
1
1
1
0.864942
0.968537
1
1
1
1
1
1
1
1
1
1
1
1
1
1
1
1
1
1
1
1
1
1
0.99591
1
1
1
1
1
1
1
1
1
1
1
1
1
1
1
1
1
1
1
1
1
1
0.999994
1
1
1
1
1
1
1
1
1
1
1
1
1
1
1
1
1
1
1
1
1
1
0.999997
1
1
1
1
1
1
1
1
1
1
1
1
1
1
1
1
1
1
1
1
1
1
1
2.27373e-19
4.4248e-17
2.02394e-13
8.18729e-13
9.55954e-17
2.40363e-18
-3.72708e-16
1.44276e-09
1.20258e-06
0.000275283
0.211778
0.210573
0.166494
0.17907
0.169851
0.310908
0.333506
0.333497
0.332737
1.84907e-15
1.90471e-13
1.43946e-09
5.24089e-10
4.7419e-13
1.34737e-16
1.39967e-11
2.49344e-07
8.64853e-05
0.0339797
9.23625e-05
3.15406e-05
3.15204e-05
3.23891e-05
3.75818e-05
3.30213e-05
8.39586e-05
0.00614212
0.299374
4.19597e-12
6.71002e-10
1.46001e-06
8.74231e-07
7.30144e-10
5.45119e-13
2.84182e-12
2.71388e-07
0.00213683
0.0163647
2.55479e-06
0.000140444
0.000140444
0.000132943
0.000124687
3.16799e-05
3.61302e-06
8.18107e-05
0.0752729
1.18012e-09
4.40667e-06
0.000272404
6.20308e-05
1.76757e-07
5.26027e-11
1.29575e-10
5.06077e-08
0.000987163
0.000788686
2.47326e-07
8.75421e-08
9.76143e-09
2.47614e-11
3.1268e-11
7.75792e-10
3.14713e-06
3.42279e-08
0.0226648
2.83798e-09
5.44815e-09
0.610839
0.0566908
1.27738e-05
9.62853e-09
4.36796e-10
3.49713e-09
2.54859e-06
4.54356e-05
2.17952e-07
2.76849e-07
1.1032e-07
2.19233e-11
1.53424e-11
1.1686e-08
3.44459e-08
1.60625e-08
0.00208208
7.23664e-09
2.00394e-08
0.972114
0.974415
0.000252449
1.79463e-08
5.66211e-10
-1.67609e-10
1.4702e-07
7.10751e-06
2.46274e-07
1.27096e-06
6.55239e-06
9.27271e-12
1.51825e-11
1.91241e-11
6.81437e-11
1.44197e-09
0.00283207
9.00706e-09
2.86562e-08
0.977656
0.998795
0.0267863
5.88778e-07
1.32036e-09
3.13396e-09
0.00065213
0.000212231
4.1558e-06
0.00148816
0.00147826
6.43071e-11
1.26273e-11
1.44245e-11
2.44679e-11
7.33353e-09
0.0121868
0.0290133
0.114195
0.999483
0.999346
0.0114462
2.50538e-06
1.89315e-09
2.8614e-08
0.000866058
0.00369898
0.000143624
0.00148877
0.00146589
2.66994e-09
1.16488e-11
1.00255e-11
1.0642e-11
6.77422e-09
0.0324899
1
1
0.999863
0.999765
0.999992
0.999998
1
1
1
1
1
1
1
1
1
1
1
1
1
1
1
1
1
0.496803
0.68323
0.00842978
0.155555
0.300229
0.365949
0.468646
0.578387
0.671241
0.750971
0.83249
0.929942
0.99424
1
1
1
1
1
1
1
1
1
1
8.31867e-31
6.4217e-13
4.46596e-22
-8.19895e-15
-2.95793e-14
-4.86782e-14
-6.65496e-30
2.17262e-12
1.80344e-09
6.70841e-07
5.08048e-06
6.0821e-06
9.84789e-06
0.0638358
0.303286
0.893271
1
1
1
1
1
1
1
-3.43179e-14
1.49134e-32
0
-2.80258e-14
-1.17448e-13
-2.76242e-13
-1.86738e-13
7.56416e-12
6.98152e-12
0.000188441
0.000184835
6.08489e-05
7.78232e-05
7.78228e-05
4.48622e-05
7.90211e-06
0.0167861
0.175943
0.761233
1
1
1
1
-4.64281e-14
-1.04419e-15
-6.14767e-15
-3.70432e-14
-1.47335e-13
-3.31921e-13
-1.02142e-13
1.08041e-12
5.96187e-12
1.9447e-12
8.83832e-11
1.19652e-09
4.82178e-09
3.36156e-08
1.51745e-08
3.50571e-05
2.44434e-05
1.24772e-07
9.30291e-08
0.0356979
0.332339
0.971856
1
-4.10874e-14
-3.81849e-16
-3.60604e-15
-2.30123e-14
-9.45655e-14
-2.1228e-13
6.06958e-14
4.63184e-12
5.33205e-12
1.93278e-12
2.89685e-07
1.53639e-09
2.9299e-06
2.32625e-06
1.51745e-08
2.03449e-07
9.87179e-08
7.41389e-08
1.70771e-07
1.07313e-07
1.39187e-07
2.52092e-07
0.0535307
-1.07516e-14
-9.3848e-17
-1.31029e-15
-1.01689e-14
-4.43098e-14
-8.85447e-14
1.08797e-13
3.35618e-12
5.76314e-12
3.47186e-12
3.53098e-12
1.04467e-08
2.71602e-12
2.37289e-12
1.82728e-08
1.26042e-07
1.52289e-11
7.6714e-07
1.33333e-06
1.16081e-06
1.18926e-07
1.16462e-06
2.21451e-07
-1.2575e-15
-1.64186e-17
-3.53448e-16
-3.47055e-15
-1.52768e-14
-2.73206e-14
3.91987e-15
5.37715e-13
1.50117e-12
4.97849e-12
3.13463e-09
1.00563e-08
6.69147e-10
2.29948e-12
1.60781e-08
2.56209e-08
1.02256e-09
1.03084e-11
1.04431e-11
1.05033e-11
7.46158e-07
2.425e-05
6.00101e-06
-1.39403e-16
-2.03098e-18
-8.10552e-17
-9.60331e-16
-4.04879e-15
-6.59275e-15
-1.01801e-15
2.8693e-14
6.2469e-13
1.43162e-11
5.43772e-13
2.49691e-13
9.79471e-13
2.58581e-12
8.13715e-13
3.47317e-13
3.50099e-13
1.17729e-11
3.68279e-11
4.59347e-10
9.9649e-11
2.33499e-05
1.74328e-05
-1.28457e-17
-2.20807e-19
-1.72217e-17
-2.11435e-16
-8.40647e-16
-1.26447e-15
-4.06579e-16
9.85488e-16
4.45643e-14
1.50333e-13
1.11953e-13
1.6866e-13
4.67176e-13
9.27399e-13
7.61191e-13
3.46654e-13
8.25493e-13
2.44205e-12
1.52969e-11
2.66814e-09
9.81686e-08
3.25651e-07
2.53004e-08
-8.51502e-19
-3.77521e-20
-3.20648e-18
-3.72963e-17
-1.35506e-16
-1.888e-16
-8.05491e-17
1.49683e-17
3.85151e-16
2.99577e-15
7.44257e-15
9.50089e-15
3.27265e-14
7.02239e-14
5.12917e-14
3.58825e-14
9.95276e-14
1.98806e-13
7.86678e-12
3.94082e-10
5.86135e-08
9.20266e-06
4.96098e-05
-7.65994e-20
-5.98633e-21
-4.80589e-19
-5.09892e-18
-1.65297e-17
-2.11667e-17
-1.03216e-17
-7.69267e-19
8.95744e-18
7.19817e-17
1.83773e-16
3.07531e-16
1.51088e-15
3.08339e-15
2.14669e-15
2.39299e-15
9.3491e-15
1.74916e-14
2.32293e-13
1.0074e-09
4.49105e-10
3.53832e-10
0.000436771
-1.26095e-20
-7.00613e-22
-5.41328e-20
-5.14987e-19
-1.47231e-18
-1.72327e-18
-8.94815e-19
-1.47642e-19
1.43127e-19
1.18726e-18
2.92655e-18
5.93336e-18
3.36227e-17
6.96854e-17
5.54299e-17
9.62204e-17
5.3667e-16
1.36018e-15
2.69963e-15
5.75259e-16
4.29414e-10
3.374e-10
2.58905e-13
-1.81833e-21
-5.67663e-23
-4.28837e-21
-3.6419e-20
-9.174e-20
-9.80548e-20
-5.18582e-20
-1.15576e-20
1.00198e-21
1.4029e-20
3.26032e-20
6.85166e-20
3.60503e-19
7.60728e-19
7.25957e-19
1.73344e-18
1.17448e-17
3.74109e-17
6.02788e-17
1.3751e-16
1.39459e-19
3.67405e-12
2.51055e-11
-1.85353e-22
-3.01518e-24
-2.23706e-22
-1.69656e-21
-3.79364e-21
-3.72041e-21
-1.93869e-21
-4.94941e-22
-2.0909e-23
1.08965e-22
2.73049e-22
5.11704e-22
1.78652e-21
3.61885e-21
4.01232e-21
1.38812e-20
1.05904e-19
4.00415e-19
8.18011e-19
7.60625e-19
2.97493e-20
-1.41383e-27
2.58971e-15
-1.31803e-23
-9.8025e-26
-7.09594e-24
-4.81615e-23
-9.67863e-23
-8.83234e-23
-4.45882e-23
-1.20179e-23
-1.10896e-24
5.9006e-25
1.66293e-24
2.92252e-24
4.97478e-24
5.73269e-24
-8.71168e-25
1.07757e-23
2.96941e-22
1.51036e-21
3.91049e-21
4.57097e-21
-6.48344e-22
-2.36304e-20
-9.66118e-20
-6.38647e-25
-1.76269e-27
-1.21836e-25
-7.42915e-25
-1.35894e-24
-1.16874e-24
-5.67575e-25
-1.54214e-25
-1.82385e-26
1.63943e-27
5.8419e-27
-5.5889e-28
-9.79042e-26
-1.22724e-24
-7.08188e-24
-2.06166e-23
-3.92591e-23
-5.99236e-23
-9.48595e-23
-3.06014e-22
-2.03766e-21
-1.18897e-20
-5.14081e-20
-2.0294e-26
-1.50641e-29
-9.25578e-28
-5.09979e-27
-8.56802e-27
-6.95519e-27
-3.20954e-27
-8.4672e-28
-1.0884e-28
-2.06935e-29
-6.42222e-28
-8.7575e-27
-6.09406e-26
-3.15109e-25
-1.23243e-24
-3.48945e-24
-7.57795e-24
-1.38229e-23
-2.66646e-23
-1.04244e-22
-6.90342e-22
-3.97739e-21
-1.76054e-20
-4.08288e-28
-5.64238e-32
-1.96696e-30
-9.85623e-30
-1.52409e-29
-1.1552e-29
-4.87958e-30
-1.25624e-30
-1.11264e-30
-1.58463e-29
-2.35275e-28
-1.96545e-27
-9.73667e-27
-3.31742e-26
-8.69815e-26
-1.87107e-25
-3.45395e-25
-6.26611e-25
-2.61226e-24
-2.64313e-23
-2.11769e-22
-1.16769e-21
-4.77751e-21
-5.09745e-30
-2.9245e-34
-1.04691e-37
-3.75744e-36
-8.15329e-35
-7.61304e-34
-5.58618e-33
-3.25742e-32
-2.56487e-31
-2.95882e-30
-2.977e-29
-1.87233e-28
-7.47314e-28
-2.07764e-27
-4.38239e-27
-7.51482e-27
-1.14772e-26
-3.88839e-26
-6.96505e-25
-9.41266e-24
-7.31114e-23
-3.66499e-22
-1.30633e-21
-3.94468e-32
-2.56238e-36
-5.1402e-39
-2.45519e-37
-5.58579e-36
-7.36926e-35
-5.91439e-34
-3.83072e-33
-2.85998e-32
-2.51926e-31
-1.85745e-30
-9.1491e-30
-3.0375e-29
-7.32958e-29
-1.38296e-28
-2.1776e-28
-4.43265e-28
-9.42708e-27
-2.56045e-25
-3.43143e-24
-2.54034e-23
-1.1892e-22
-3.82575e-22
-1.91016e-34
-1.59153e-38
-1.97563e-40
-1.00395e-38
-2.37277e-37
-3.34284e-36
-3.05776e-35
-2.17599e-34
-1.5153e-33
-1.05422e-32
-5.92912e-32
-2.34016e-31
-6.55276e-31
-1.38475e-30
-2.35096e-30
-3.73609e-30
-5.29941e-29
-3.10799e-27
-8.58077e-26
-1.09905e-24
-7.70232e-24
-3.37614e-23
-9.876e-23
-5.86518e-37
-5.96806e-41
-4.42896e-42
-2.31698e-40
-5.62673e-39
-8.15752e-38
-7.88054e-37
-5.76136e-36
-3.63689e-35
-2.0223e-34
-8.86665e-34
-2.84883e-33
-6.80217e-33
-1.26788e-32
-1.97781e-32
-1.24738e-31
-1.42652e-29
-9.13421e-28
-2.41654e-26
-2.89753e-25
-1.88429e-24
-7.46725e-24
-1.79074e-23
-1.15631e-39
-1.32735e-43
-4.77065e-44
-2.51796e-42
-6.20101e-41
-9.05971e-40
-8.72265e-39
-6.12766e-38
-3.3853e-37
-1.49679e-36
-5.1231e-36
-1.33689e-35
-2.7164e-35
-4.47903e-35
-1.38573e-34
-2.34709e-32
-3.53583e-30
-2.24323e-28
-5.58715e-27
-6.15571e-26
-3.61055e-25
-1.19529e-24
-1.52417e-24
-1.47337e-42
-1.82608e-46
-1.69677e-46
-8.74996e-45
-2.13572e-43
-3.0579e-42
-2.80005e-41
-1.77666e-40
-8.2263e-40
-2.86061e-39
-7.64085e-39
-1.61065e-38
-2.76448e-38
-6.30734e-38
-1.38799e-35
-4.66244e-33
-7.32863e-31
-4.58091e-29
-1.07005e-27
-1.06337e-26
-5.40327e-26
-1.30339e-25
5.17158e-26
-1.20786e-45
-1.61891e-49
-5.88954e-50
-2.50374e-48
-5.18632e-47
-6.37132e-46
-5.01877e-45
-2.71492e-44
-1.06153e-43
-3.12522e-43
-7.17126e-43
-1.32509e-42
-4.84879e-42
-3.02914e-39
-2.07979e-36
-7.72348e-34
-1.26192e-31
-8.04458e-30
-1.82004e-28
-1.60218e-27
-6.68321e-27
-9.66408e-27
2.62604e-25
-6.23308e-49
-9.36578e-53
-1.35324e-56
-5.75722e-55
-1.34408e-53
-1.89323e-52
-1.7317e-51
-1.09437e-50
-5.00467e-50
-1.72198e-49
-5.14898e-49
-1.35485e-46
-2.477e-43
-3.19645e-40
-2.56634e-37
-1.04982e-34
-1.83402e-32
-1.37784e-30
-3.35757e-29
-2.6118e-28
-8.67746e-28
-6.08488e-28
2.83419e-25
-1.92672e-52
-3.55109e-56
-2.74039e-61
-1.03389e-62
-2.52993e-61
-3.69387e-60
-3.48217e-59
-2.2569e-58
-1.14751e-57
-5.58197e-55
-2.35407e-51
-7.36607e-48
-1.69026e-44
-2.6945e-41
-2.54461e-38
-1.16095e-35
-2.42808e-33
-2.87943e-31
-8.1596e-30
-5.73612e-29
-1.62695e-28
-8.18545e-29
1.65486e-25
-3.21611e-56
-8.51431e-60
-5.6216e-65
-7.59134e-70
-6.82811e-71
-1.272e-69
-2.78048e-68
-1.82395e-64
-1.83981e-60
-1.34703e-56
-7.2599e-53
-2.93003e-49
-8.7618e-46
-1.76481e-42
-1.97436e-39
-1.06444e-36
-3.47802e-34
-7.48289e-32
-2.23637e-30
-1.42238e-29
-3.68967e-29
-2.42972e-29
3.02887e-26
-2.31247e-60
-1.09103e-63
-6.61876e-69
-7.37462e-74
-4.75698e-78
-3.06533e-75
-7.94065e-71
-1.49708e-66
-2.02046e-62
-1.99279e-58
-1.46549e-54
-8.17517e-51
-3.33935e-47
-8.63502e-44
-1.17536e-40
-8.94339e-38
-5.89545e-35
-1.8947e-32
-5.3495e-31
-3.0265e-30
-7.55278e-30
-7.40529e-30
2.4383e-27
-3.92461e-65
-4.76886e-68
-2.64377e-73
-2.36338e-78
-2.24027e-82
-6.965e-78
-2.25553e-73
-5.80491e-69
-1.13273e-64
-1.65456e-60
-1.83225e-56
-1.53432e-52
-8.90465e-49
-3.01389e-45
-5.54527e-42
-8.08661e-39
-9.94195e-36
-3.91893e-33
-9.87431e-32
-4.95692e-31
-1.51898e-30
-3.03806e-30
2.7636e-28
-1.27587e-102
-1.48441e-73
-5.64513e-79
-3.00049e-84
-4.41441e-84
-1.07935e-79
-1.7762e-75
-2.37771e-71
-3.74713e-67
-7.37451e-63
-1.34068e-58
-1.81791e-54
-1.54837e-50
-7.35172e-47
-2.40644e-43
-7.62948e-40
-1.36632e-36
-6.15129e-34
-1.33445e-32
-6.42183e-32
-4.52439e-31
-1.73973e-30
3.15767e-28
-2.65185e-105
-5.84e-101
-2.43171e-95
-2.02152e-90
-9.03549e-86
-2.4165e-81
-4.13976e-77
-4.67543e-73
-3.68297e-69
-2.98617e-65
-5.60825e-61
-1.22646e-56
-1.63358e-52
-1.38038e-48
-1.07607e-44
-5.97273e-41
-1.37776e-37
-7.03052e-35
-1.27603e-33
-8.69365e-33
-1.85408e-31
-8.47061e-31
4.87444e-28
-4.40855e-108
-3.78088e-103
-1.69055e-97
-1.63882e-92
-8.4302e-88
-2.58434e-83
-5.0774e-79
-6.57413e-75
-5.69518e-71
-3.33519e-67
-2.03694e-63
-4.20737e-59
-1.0673e-54
-2.41808e-50
-4.03485e-46
-3.22502e-42
-9.53524e-39
-5.60482e-36
-8.5326e-35
-1.83261e-33
-7.02214e-32
-3.10661e-31
3.26512e-28
-4.56599e-112
-5.57014e-106
-3.02461e-100
-3.80009e-95
-2.46561e-90
-9.47152e-86
-2.33531e-81
-3.81892e-77
-4.20944e-73
-3.10525e-69
-1.53858e-65
-9.4644e-62
-5.35452e-57
-3.30919e-52
-9.30029e-48
-1.05021e-43
-4.19609e-40
-2.93736e-37
-4.57656e-36
-4.63527e-34
-2.11687e-32
-9.19458e-32
-4.48927e-29
-1.13127e-117
-7.03947e-110
-6.67579e-104
-1.38309e-98
-1.39158e-93
-8.11281e-89
-2.99721e-84
-7.3422e-80
-1.20031e-75
-1.30687e-71
-9.28106e-68
-4.55001e-64
-1.61078e-59
-2.06651e-54
-9.98694e-50
-1.75185e-45
-1.05099e-41
-9.39536e-39
-3.19065e-37
-9.65334e-35
-4.83658e-33
-2.8322e-32
-4.42207e-28
-3.85321e-125
-7.69203e-115
-1.95912e-108
-8.22632e-103
-1.50568e-97
-1.55398e-92
-1.00339e-87
-4.20932e-83
-1.16903e-78
-2.11537e-74
-2.44136e-70
-1.74351e-66
-1.5747e-62
-3.14185e-57
-3.27854e-52
-1.14159e-47
-1.26452e-43
-1.7475e-40
-2.85754e-38
-1.43337e-35
-7.99249e-34
-1.44916e-32
-8.07728e-28
-1.40106e-135
-6.58888e-121
-6.91369e-114
-6.86019e-108
-2.57036e-102
-5.15971e-97
-6.41818e-92
-5.211e-87
-2.77817e-82
-9.53004e-78
-2.05463e-73
-2.68463e-69
-2.0318e-65
-3.018e-61
-1.45202e-55
-1.81028e-50
-5.68754e-46
-2.1138e-42
-1.84657e-39
-1.37298e-36
-8.95029e-35
-9.37679e-33
-7.70668e-28
-3.2196e-153
-2.15828e-128
-1.37703e-120
-3.64475e-114
-3.05325e-108
-1.32184e-102
-3.61183e-97
-6.61511e-92
-8.17471e-87
-6.69602e-82
-3.42825e-77
-1.04687e-72
-1.77244e-68
-1.58926e-64
-1.59391e-60
-2.61211e-54
-7.24269e-49
-1.71952e-44
-6.11004e-41
-7.30494e-38
-6.12108e-36
-4.32824e-33
-4.16827e-28
-1.98406e-183
-3.65902e-138
-2.95131e-129
-2.67316e-122
-6.04157e-116
-6.69655e-110
-4.70259e-104
-2.39687e-98
-8.82071e-93
-2.2665e-87
-3.85091e-82
-3.74624e-77
-1.89155e-72
-4.47248e-68
-5.81536e-64
-3.34651e-59
-1.95378e-52
-3.83028e-47
-6.80099e-43
-1.61495e-39
-2.11294e-37
-1.087e-33
-1.16366e-28
-1.90004e-213
-6.15617e-152
-2.81902e-141
-1.33143e-133
-1.0924e-126
-4.09044e-120
-9.7439e-114
-1.70834e-107
-2.29909e-101
-2.32252e-95
-1.56923e-89
-6.55211e-84
-1.42636e-78
-1.43409e-73
-5.98206e-69
-3.45686e-64
-7.1727e-58
-2.12789e-51
-6.02385e-46
-6.65012e-42
-2.39788e-39
-1.09679e-34
-1.26265e-29
0
-1.21895e-175
-1.10629e-161
-5.82443e-153
-3.3848e-145
-8.42106e-138
-1.32587e-130
-1.55944e-123
-1.44025e-116
-1.03911e-109
-5.55594e-103
-1.92877e-96
-3.79385e-90
-3.43943e-84
-1.30229e-78
-1.28899e-73
-7.41324e-66
-5.41341e-59
-6.73463e-53
-1.86857e-47
-1.04994e-42
-1.85003e-36
-2.15926e-31
1
1
0.600141
0.525138
1
1
1
1
1
1
1
1
1
1
1
1
1
1
1
1
0.327107
0.934918
1
1
2.20791e-07
2.20793e-07
7.63482e-07
0.138092
2.0651e-07
2.20793e-07
3.60118e-05
6.26363e-06
4.98511e-08
0.000169527
0.000267192
0.000380639
5.44311e-08
6.63983e-08
8.47747e-08
5.40443e-07
7.60863e-08
2.91034e-05
0.000142361
0.000487112
0.000699953
0.000704647
0.000704647
0.000416145
1.66858e-13
1.707e-13
5.43617e-05
8.65367e-05
9.24209e-13
1.76162e-13
5.1439e-12
2.06571e-13
1.78588e-13
2.02568e-13
7.7769e-14
1.73907e-13
-1.15324e-19
6.82147e-19
3.38584e-17
2.55322e-16
-1.22661e-19
-1.93956e-19
-2.87188e-19
-3.58074e-19
-4.37119e-20
-7.16849e-20
-1.1483e-19
-1.80182e-19
-1.12678e-20
-1.80581e-20
-2.84569e-20
-4.41466e-20
-2.72897e-21
-4.0565e-21
-5.86823e-21
-8.26311e-21
-7.20013e-22
-9.93043e-22
-1.30092e-21
-1.59939e-21
-1.68293e-22
-2.1532e-22
-2.53494e-22
-2.68173e-22
-2.12133e-23
-1.78649e-23
-1.21053e-41
2.31018e-23
4.27694e-24
3.74709e-23
1.86944e-22
7.55324e-22
5.10131e-23
2.68741e-22
1.40959e-21
7.47654e-21
2.84165e-22
1.57817e-21
8.99955e-21
5.45145e-20
4.88338e-22
2.74875e-21
1.6632e-20
1.26834e-19
3.33515e-22
1.76655e-21
1.02864e-20
1.11124e-19
6.83393e-23
3.53702e-22
1.97471e-21
1.4486e-19
4.53436e-24
2.22462e-23
1.08285e-22
4.26892e-22
3.30183e-25
1.5191e-24
6.43656e-24
2.29915e-23
4.02486e-25
1.91763e-24
6.5639e-24
1.41581e-23
9.22801e-25
3.83751e-24
1.75883e-22
2.79173e-20
8.63433e-25
3.57224e-24
5.22182e-21
1.82367e-18
1.86881e-25
8.1068e-25
1.29612e-20
1.08173e-17
-5.59942e-26
-2.39678e-24
7.35398e-21
3.59668e-17
-1.94045e-25
-1.04861e-23
1.02917e-21
6.09777e-17
-2.72344e-25
-2.01158e-23
-2.56922e-21
1.48248e-17
-2.24017e-25
-2.12894e-23
-2.76242e-21
4.64534e-16
-9.82302e-26
-1.17973e-23
5.88972e-20
8.06608e-14
-1.65791e-26
-2.54137e-24
4.07303e-19
6.68809e-16
-4.14601e-28
-8.30068e-26
-1.47893e-31
-2.36712e-34
0.6093
0.966206
0.999786
0.83351
1.23891e-05
8.52042e-07
3.72611e-09
0.000340851
0.00413806
0.00212676
0.000286668
0.000217382
0.0014167
3.38556e-06
5.31731e-09
1.00312e-11
2.25674e-12
-1.8435e-10
0.0541004
1
1
0.999994
0.00923571
4.3987e-05
3.55113e-09
7.40859e-09
0.000449722
0.00414854
0.00210549
0.000219776
0.000217382
0.00110078
2.89174e-07
1.39351e-09
2.10819e-11
2.04401e-12
-1.58302e-11
0.0675431
1
1
0.312807
5.38887e-06
4.34597e-05
2.50681e-08
3.73664e-09
2.97093e-07
0.00047857
0.00390337
0.00353732
0.00296889
0.000482866
1.19791e-06
1.20074e-08
5.91969e-11
3.55995e-12
-7.87772e-11
0.040871
1
1
3.97068e-05
4.82052e-09
7.56012e-06
5.53631e-06
3.58653e-09
6.27008e-09
1.70501e-06
1.36925e-05
0.000109286
0.0007262
5.4286e-06
7.71688e-07
3.77338e-08
1.95727e-09
2.44179e-11
-1.82915e-10
0.00412552
1
0.892199
4.82405e-08
2.66465e-09
3.69666e-09
1.73358e-08
2.41876e-09
2.41911e-09
2.61197e-08
1.73038e-07
1.38441e-07
2.71213e-07
2.23572e-07
7.91855e-06
2.76691e-05
1.90819e-08
7.43087e-11
0
4.08388e-07
1
0.986221
5.3758e-09
4.68499e-09
9.98418e-08
0.00683434
3.62279e-07
1.05897e-08
1.262e-08
1.70747e-08
1.29763e-08
1.06102e-06
0.000882171
0.00701222
1.71959e-06
2.0492e-07
3.11763e-09
3.13643e-09
0.00825912
0.997913
1
0.38556
5.8452e-09
0.0790101
0.613337
0.76263
0.062484
9.21739e-07
2.92159e-08
3.37667e-05
7.65951e-05
0.0905418
5.37377e-06
2.34294e-06
4.18725e-07
4.11438e-06
8.69649e-09
0.766093
6.4053e-06
0.898844
0.999263
0.870207
0.980533
0.999935
0.999937
0.999937
0.346303
4.68629e-06
6.89079e-05
0.00334671
0.0896859
0.0353439
0.883384
0.595708
0.000113607
1.94606e-05
0.950093
4.66075e-05
2.66061e-06
0.225666
0.824941
0.999859
0.999937
0.999937
0.999937
0.999936
0.0634953
2.33028e-05
0.00103285
0.126243
0.999075
0.999895
0.9999
0.902244
0.205216
0.996139
0.000490878
4.43414e-05
1.37723e-06
1.37947e-06
0.00015355
1.00851e-05
0.0255295
0.327397
0.999856
0.999159
0.369658
0.000248721
0.498887
0.999658
0.999874
0.9999
0.9999
0.962147
0.999427
0.000491522
0.000110499
1.59483e-06
0.000649596
0.000649596
2.69414e-07
2.20937e-09
4.96219e-08
1.69396e-07
0.390102
0.968976
0.978441
0.989899
0.829431
0.103063
0.156663
0.995833
0.999443
0.999427
0.000472834
0.00016286
9.34392e-06
8.56583e-05
0.000157878
1.44007e-08
6.90362e-11
3.68301e-11
9.7015e-10
2.92142e-09
3.12889e-05
0.0444527
0.0184646
1.19169e-05
1.65536e-07
2.39452e-07
5.01402e-05
0.982744
0.998838
2.61612e-05
1.30337e-07
6.03459e-11
1.75894e-10
2.55699e-09
8.9234e-09
9.48598e-11
3.51502e-11
4.71079e-12
4.5176e-12
1.53868e-09
2.14899e-07
3.75217e-07
4.24546e-09
5.98195e-10
3.62608e-09
6.21515e-08
0.77131
0.958158
1.05753e-11
2.0291e-10
9.7734e-11
2.94738e-09
4.18387e-09
5.1186e-10
9.73097e-11
3.62686e-11
4.90782e-12
8.54251e-14
-5.48958e-14
5.46423e-11
2.85266e-10
1.57496e-10
4.41503e-10
7.1105e-08
0.000104625
0.887862
0.996306
4.05786e-12
9.34712e-11
6.35214e-11
2.34017e-11
1.54689e-09
6.86514e-10
7.27047e-11
2.60463e-11
3.40118e-12
7.46574e-14
4.18896e-14
4.4691e-13
1.20921e-11
9.85644e-11
1.69204e-08
7.76023e-05
0.00135073
0.43856
0.996319
8.71257e-16
9.79647e-14
9.83138e-13
6.11297e-13
1.96813e-12
1.8258e-10
4.73608e-11
5.28457e-12
8.37798e-13
4.2232e-14
3.5101e-14
7.99547e-14
1.69195e-12
7.96363e-10
5.58268e-07
0.129126
0.527673
0.247657
0.993727
-1.87999e-19
3.63999e-21
2.60579e-17
2.85235e-15
8.12107e-16
8.48684e-13
5.44878e-12
2.34897e-13
3.32788e-14
1.15222e-14
4.15618e-14
1.52939e-13
3.12236e-12
1.68963e-09
1.68925e-06
0.223984
0.992102
0.455529
0.993622
-3.77482e-19
-6.10527e-19
-2.80256e-19
6.43891e-21
1.03792e-19
6.68522e-17
1.27974e-14
7.97378e-15
1.53217e-15
5.67581e-15
5.34427e-14
2.16427e-13
2.18351e-12
1.0352e-09
4.96542e-05
0.000180182
0.992105
0.9921
0.991936
-9.53902e-20
-2.73384e-19
-4.06753e-19
-1.15698e-18
-3.95265e-17
-1.95276e-16
-3.27001e-16
-4.75084e-16
-2.65988e-18
5.50947e-15
5.45883e-14
3.04178e-13
7.85239e-13
3.18228e-10
3.80699e-07
0.221732
0.992105
0.992105
0.986714
-1.36472e-20
-3.06458e-20
-3.93227e-20
1.43417e-18
-8.08421e-17
-8.48367e-16
-3.13637e-15
-5.99661e-15
-5.82129e-15
2.64774e-15
4.25289e-14
6.43762e-13
4.77076e-10
8.11194e-07
0.00154614
0.991098
0.992105
0.992077
0.667971
-1.27989e-20
-7.19274e-23
1.21412e-20
1.90388e-18
-2.2302e-17
-9.93305e-16
-6.31393e-15
-1.74115e-14
-2.41234e-14
-9.56747e-15
6.47565e-15
6.04509e-11
1.0222e-07
5.62206e-05
0.378988
0.476241
0.613001
0.606722
0.585078
-4.62308e-19
3.75272e-18
2.80574e-14
1.59718e-13
2.01674e-17
-4.47212e-16
-5.94573e-15
-2.57885e-14
-5.12133e-14
-4.08464e-14
2.89172e-15
1.01301e-11
2.66893e-07
0.000146123
0.330359
0.494462
0.482302
0.278174
0.157144
-3.37815e-20
2.49182e-14
2.83696e-10
1.14333e-10
8.30648e-12
-1.91535e-16
-2.72752e-15
-2.23841e-14
-6.6832e-14
-8.03147e-14
5.06841e-14
3.72055e-11
8.76084e-07
0.00761915
9.13542e-07
9.79056e-07
7.38789e-06
0.0465121
0.71919
-1.11868e-15
3.28966e-10
7.20609e-07
7.13113e-07
1.68374e-08
-3.17628e-11
1.24454e-14
-4.18155e-15
-5.50258e-14
-1.01429e-13
-1.62102e-14
8.7505e-11
9.69022e-06
0.00746988
9.46603e-07
2.30372e-06
0.00129586
0.00316426
0.4634
-7.41104e-15
1.18376e-06
0.00814964
0.0101016
7.55769e-06
3.3329e-08
6.87887e-11
1.03396e-13
-4.0415e-17
3.46159e-13
1.65676e-12
6.48205e-12
8.40524e-10
3.33322e-06
0.00168718
6.37178e-07
0.00153603
0.000533084
0.267295
1.51078e-21
0.0110802
0.00882572
0.0110726
0.00540761
4.48715e-07
1.08758e-09
4.28155e-12
7.8726e-15
7.50488e-12
2.30155e-11
2.33653e-11
3.0102e-11
2.83963e-08
6.33568e-08
7.04587e-09
0.00116316
0.000534848
0.453762
9.21698e-21
0.00985896
0.000966716
9.51319e-05
6.27916e-05
4.46211e-07
1.53259e-10
1.57348e-11
4.37786e-13
2.39237e-12
5.66758e-11
2.76351e-09
6.33676e-08
6.89658e-09
6.66016e-09
6.55524e-09
0.000519613
0.00186132
0.453563
2.43284e-20
8.39161e-14
0.0117442
0.016282
1.38007e-05
8.0666e-09
5.05354e-11
2.81122e-11
4.51936e-12
3.10523e-13
4.08054e-09
7.07706e-08
3.59144e-08
6.56612e-09
6.55504e-09
6.55454e-09
0.000601417
0.000563103
0.0894196
4.75846e-18
4.49886e-15
0.00478594
0.016282
0.0162147
0.00324384
3.02095e-08
-1.08951e-10
7.47237e-14
3.10122e-13
5.57552e-08
6.06832e-08
7.09002e-09
0.000448685
0.000119782
1.97533e-06
0.00103573
0.00277522
0.0281425
3.03409e-17
1.72174e-15
2.7226e-14
0.000955889
5.1039e-05
0.00277267
0.00319637
1.33729e-07
3.50626e-10
8.31935e-13
2.35063e-12
7.99369e-08
7.06068e-10
0.000450178
0.000450199
1.79365e-05
0.00076822
0.0049277
0.000949847
1.25185e-16
5.51637e-11
4.53712e-12
9.28626e-10
2.30978e-05
2.06873e-05
0.00499798
0.000549281
3.83474e-08
1.31881e-10
7.48592e-11
7.40893e-10
3.07747e-10
1.01932e-06
0.000180846
6.03254e-05
0.000573285
0.000347396
0.11103
1.97811e-15
7.09397e-11
-8.75393e-11
8.42968e-07
1.05193e-06
3.96628e-07
4.25514e-07
0.00392311
2.15146e-06
8.95914e-09
1.42969e-10
2.96185e-10
2.87483e-10
5.24801e-09
1.64065e-08
0.000295052
0.00112473
0.00820859
0.231251
1.99491e-14
1.0236e-14
-6.83208e-10
0.00382749
0.00362455
3.75397e-06
3.93929e-07
5.05512e-07
0.00252424
0.0001039
1.53288e-08
3.13516e-10
3.01955e-10
3.47739e-10
1.5957e-09
5.27489e-05
0.00113416
0.00652535
0.00633228
2.2208e-14
1.24504e-09
0.00043524
0.00382749
4.02187e-06
5.95359e-07
2.09009e-07
2.11325e-07
0.00115816
0.00229208
2.10282e-07
5.44885e-10
3.0769e-10
1.01947e-07
4.53309e-06
0.00093822
0.000106019
8.04074e-05
0.000150958
5.99756e-15
2.76582e-08
1.4115e-07
0.0015162
0.000868749
2.15413e-06
0.000131952
2.19015e-07
9.12645e-07
0.0023538
1.40262e-06
1.58904e-09
2.22245e-07
1.09385e-07
0.000130446
0.000867966
0.000874011
8.13168e-05
8.07897e-05
4.15879e-15
3.05295e-15
0.000307189
0.019407
0.00424656
1.72997e-05
0.000143129
0.000317742
4.85844e-06
0.00232942
3.1727e-07
4.55779e-08
7.94207e-07
9.48275e-06
0.000394678
0.000320012
0.000320012
0.0265135
0.0384359
1.22511e-15
2.10862e-14
0.00535339
0.00279097
0.0292263
0.0175223
3.55488e-05
0.000317742
2.60015e-05
0.00227465
7.61454e-08
1.6635e-07
4.70033e-07
1.25911e-06
0.0060078
0.0336624
0.0339906
0.013721
2.43464e-05
1.92425e-16
5.5736e-12
3.49594e-08
0.00649555
0.0120091
0.0294794
0.000334418
1.0833e-06
0.000291075
0.000698141
2.05271e-05
4.19831e-08
9.21575e-08
2.23013e-05
0.0298557
2.06166e-06
2.16289e-07
2.14713e-07
3.5661e-07
-5.32263e-15
9.49984e-08
7.28376e-07
0.00782656
0.000996198
0.00210352
8.81559e-08
9.43775e-08
9.42808e-06
7.65137e-06
5.78354e-08
3.54545e-08
7.79499e-06
0.0384195
0.000296523
0.00803099
1.36736e-05
2.24627e-07
1.92765e-05
1.25501e-10
4.9082e-05
0.000254162
4.09018e-06
7.26912e-05
6.13892e-06
8.75797e-08
8.7784e-08
8.61471e-06
5.83203e-06
1.08039e-07
9.54715e-08
0.00211271
0.0102844
0.0013557
0.0468576
0.00562184
1.88422e-06
0.000652874
2.6867e-08
5.66476e-08
1.48086e-06
2.82125e-06
0.000112519
6.03136e-05
8.75797e-08
8.75815e-08
3.28045e-06
2.07839e-05
9.2062e-08
2.63196e-07
0.0102631
0.000299231
0.000118278
0.00521124
2.40864e-11
1.98232e-07
3.19139e-06
2.47594e-36
3.83657e-07
7.65366e-06
9.68179e-09
4.59936e-13
9.83919e-08
1.0292e-06
8.81447e-08
0.000389303
3.32603e-05
7.15074e-08
2.70986e-07
0.0243939
7.29646e-05
0.00635025
1.03983e-31
1.04718e-14
1.05344e-09
0.000451956
1
1
1
1
1
1
1
1
1
1
1
1
1
1
1
1
1
0.992386
0.876147
0.988682
0.961292
0.999298
0.999303
1
1
1
1
1
1
1
1
1
1
1
1
1
1
1
1
1
1
0.984727
0.999915
0.996644
0.853139
0.999302
1
1
1
1
1
1
1
1
1
1
1
1
1
1
1
1
1
1
1
1
0.988663
0.840815
0.996637
1
1
1
1
1
1
1
1
1
1
1
1
1
1
1
1
1
1
1
1
1
0.840815
0.99961
1
1
1
1
1
1
1
1
1
1
1
1
1
1
1
1
1
1
1
1
1
0.985696
0.999808
1
1
1
1
1
1
1
1
1
1
1
1
1
1
1
1
1
1
1
1
1
1
0.999988
1
1
1
1
1
1
1
1
1
1
1
1
1
1
1
1
1
1
1
1
1
1
0.999995
1
1
1
1
1
1
1
1
1
1
1
1
1
1
1
1
1
1
1
1
1
1
1
2.27354e-19
2.14781e-15
9.09209e-12
3.37649e-15
2.40363e-18
2.40363e-18
2.15303e-11
4.71391e-08
1.74124e-05
0.0801775
0.212013
0.176684
0.177542
0.1781
0.209479
0.333506
0.333507
0.333405
0.30626
1.10759e-15
2.10886e-11
6.44024e-09
1.90948e-11
5.35826e-15
7.42724e-13
4.31199e-09
5.73973e-06
0.0107005
0.0322453
4.0942e-05
3.1554e-05
3.15594e-05
3.45005e-05
3.69396e-05
2.48805e-05
0.000376738
0.0885317
0.332659
3.68409e-12
3.32552e-08
5.03294e-06
2.69467e-08
1.54431e-11
1.13887e-11
4.97255e-09
7.30133e-06
0.0156679
1.23384e-05
4.09408e-05
0.000140444
0.000138034
0.000128246
0.00012178
6.80019e-06
9.58453e-06
0.000593003
0.332635
1.0408e-09
0.000384905
0.000864044
3.80383e-06
-1.03766e-09
1.93016e-11
9.33181e-10
1.24516e-05
0.00229065
0.000404554
2.36739e-07
2.27724e-08
2.48748e-11
2.5322e-11
7.3589e-11
3.84605e-09
4.32684e-08
1.8527e-05
0.331041
2.58881e-09
1.09831e-07
0.708588
0.00021359
3.53263e-07
2.98055e-10
4.36796e-10
8.24803e-07
4.71335e-05
2.32695e-06
2.14932e-07
5.43493e-07
6.74067e-11
1.73509e-11
3.71218e-11
3.44152e-08
2.26524e-08
-3.95747e-07
0.0228484
7.8792e-08
0.273946
0.998045
0.162451
1.07563e-05
-4.5651e-09
6.71816e-10
1.25705e-09
3.44134e-06
5.28526e-07
4.53212e-07
7.4099e-06
-1.04091e-07
1.571e-11
1.50573e-11
2.97234e-11
5.34649e-10
1.83813e-05
0.00299896
8.89675e-09
0.369154
0.99904
0.688031
3.39577e-05
2.83609e-09
4.89334e-10
3.52102e-07
0.00131651
3.38354e-06
0.000237069
0.00148625
0.000459389
3.28898e-11
1.3128e-11
1.63108e-11
1.71505e-10
5.08343e-07
0.422112
8.75959e-06
0.894051
0.999439
0.515694
1.2628e-05
5.33886e-08
2.03074e-09
1.46946e-06
0.00382752
7.28342e-05
0.00148813
0.00148813
0.000993577
4.02844e-10
9.9563e-12
8.31196e-12
1.10371e-10
6.77445e-07
0.726182
1
0.999985
0.995493
0.999978
0.999996
0.999999
1
1
1
1
1
1
1
1
1
1
1
1
1
1
1
1
1
0.936184
0.282434
0.0315349
0.28014
0.324176
0.415782
0.5258
0.625496
0.71313
0.789154
0.880989
0.970705
0.999854
1
1
1
1
1
1
1
1
1
1
2.45374e-16
1.98896e-10
-2.34869e-11
-1.54051e-14
-5.0369e-14
0
2.43514e-14
7.45234e-11
3.94358e-08
2.8099e-06
5.90498e-06
6.31052e-06
0.0107923
0.153916
0.540492
1
1
1
1
1
1
1
1
-1.36395e-15
2.06644e-29
2.09734e-13
-6.07721e-14
-1.99492e-13
-2.85908e-13
-2.37944e-15
4.58646e-10
2.77068e-05
0.000188441
5.34442e-05
7.75631e-05
7.78909e-05
5.84268e-05
1.0918e-05
4.51218e-06
0.0713851
0.368664
1
1
1
1
1
-1.6662e-15
-2.57319e-15
-1.57265e-14
-7.81552e-14
-2.43681e-13
-3.22871e-13
2.47252e-13
1.09654e-12
3.45919e-12
1.96507e-12
6.84232e-10
1.19374e-09
1.80972e-08
4.45182e-07
7.33175e-06
3.88876e-05
2.73165e-07
9.4032e-08
0.00247055
0.133225
0.642401
1
1
-4.22637e-16
-1.21987e-15
-9.60968e-15
-4.94197e-14
-1.59195e-13
-1.7825e-13
1.36545e-12
6.48783e-12
1.9243e-12
2.54863e-07
2.30762e-07
2.60349e-07
2.9304e-06
5.41502e-08
9.03012e-08
2.24274e-07
7.22351e-08
1.70235e-07
1.33086e-07
1.37455e-07
2.06579e-07
0.0129011
0.16746
-4.22707e-17
-3.67972e-16
-3.932e-15
-2.27631e-14
-7.22671e-14
-5.92425e-14
1.02649e-12
5.71896e-12
5.10218e-12
3.47075e-12
1.89468e-11
6.111e-09
2.37501e-12
5.08601e-09
5.67435e-08
1.29156e-08
1.4337e-11
1.33211e-06
1.33211e-06
1.34795e-07
9.61371e-07
9.45419e-07
2.20828e-07
-4.53185e-18
-7.94645e-17
-1.23938e-15
-8.03993e-15
-2.39038e-14
-1.62964e-14
1.20495e-13
9.22011e-13
5.03927e-12
1.90236e-11
9.81338e-09
4.48677e-09
7.76326e-12
1.02954e-12
2.56804e-08
1.48141e-08
9.06433e-12
1.03769e-11
1.05103e-11
1.05404e-11
1.52176e-05
1.86346e-05
2.21015e-07
-4.82706e-19
-1.37378e-17
-3.26662e-16
-2.18675e-15
-6.06874e-15
-4.3491e-15
4.55005e-15
7.49815e-14
6.64497e-12
5.9741e-12
2.47203e-13
2.75431e-13
2.339e-12
1.96292e-12
3.48694e-13
3.48694e-13
3.94845e-12
2.91432e-11
1.45182e-11
1.86492e-09
1.45335e-09
3.78066e-05
2.54232e-08
-1.05828e-19
-2.28274e-18
-7.3278e-17
-4.7092e-16
-1.19688e-15
-9.31692e-16
-1.22709e-17
3.99011e-15
1.48151e-13
1.22588e-13
1.32122e-13
2.69859e-13
7.84444e-13