/*--------------------------------*- C++ -*----------------------------------*\
| =========                 |                                                 |
| \\      /  F ield         | OpenFOAM: The Open Source CFD Toolbox           |
|  \\    /   O peration     | Version:  v1912                                 |
|   \\  /    A nd           | Website:  www.openfoam.com                      |
|    \\/     M anipulation  |                                                 |
\*---------------------------------------------------------------------------*/
FoamFile
{
    version     2.0;
    format      ascii;
    class       volScalarField;
    location    "0.5";
    object      p;
}
// * * * * * * * * * * * * * * * * * * * * * * * * * * * * * * * * * * * * * //

dimensions      [1 -1 -2 0 0 0 0];


internalField   nonuniform List<scalar> 
9072
(
597.553
627.739
635.55
641.193
641.72
641.995
645.205
651.537
660.434
671.637
685.178
701.183
719.744
740.848
764.394
790.288
817.711
841.488
854.525
853.584
859.951
850.571
878.853
536.333
567.237
575.037
580.787
581.638
582.263
585.746
592.234
601.19
612.388
625.903
641.89
660.426
681.447
704.775
730.008
756.125
780.143
795.891
792.819
808.476
763.632
782.73
473.481
504.857
512.364
518.504
520.165
521.552
525.599
532.39
541.439
552.612
566.067
582.021
600.57
621.603
644.813
669.586
694.574
716.984
733.13
740.697
766.853
686.434
687.693
409.513
440.687
447.659
454.876
457.865
460.228
464.944
472.07
481.194
492.295
505.648
521.557
540.147
561.257
584.464
608.996
633.451
655.507
672.554
684.964
700.172
647.259
646.468
345.36
374.961
380.994
390.636
395.364
398.614
403.906
411.304
420.441
431.41
444.611
460.464
479.137
500.413
523.755
548.296
572.64
594.823
612.916
626.57
636.119
612.277
626.912
282.836
307.528
311.458
326.162
333.056
336.794
342.479
350.06
359.142
369.91
382.902
398.689
417.507
439.064
462.709
487.526
512.136
534.803
553.947
568.846
578.588
576.584
606.299
224.954
239.088
238.519
259.908
270.943
274.598
280.537
288.272
297.247
307.741
320.453
336.165
355.212
377.198
401.324
426.69
451.907
475.364
495.658
511.903
523.402
531.282
562.771
174.657
173.501
167.128
194.377
208.177
211.682
217.904
225.86
234.705
244.855
257.191
272.798
292.168
314.773
339.576
365.784
391.926
416.456
438.06
455.78
468.897
478.76
498.57
170.759
170.795
170.987
171.011
170.644
170.333
170.365
171.001
171.696
172.693
174.36
157.764
154.882
157.913
162.427
163.508
174.722
241.477
731.841
170.693
170.707
170.916
170.979
170.565
170.201
170.18
170.799
171.926
158.583
153.653
150.76
150.249
152.743
155.835
157.045
157.53
164.818
516.483
170.623
170.566
170.81
170.976
170.457
169.941
169.761
170.146
169.995
156.717
152.399
150.064
149.983
152.663
155.579
156.938
157.252
157.707
219.637
170.561
170.356
170.42
170.933
170.289
169.539
169.143
168.862
166.53
157.96
152.578
149.243
149.713
152.538
155.206
156.651
157.031
156.865
164.344
170.542
170.254
166.143
170.6
170.005
168.951
168.419
167.493
164.41
158.018
152.217
147.121
148.239
152.012
154.828
156.302
156.821
157.194
160.157
170.568
170.307
136.551
162.328
169.831
168.102
167.699
166.414
163.022
156.936
149.838
142.949
145.303
150.908
154.359
155.918
156.521
157.062
159.243
170.58
170.417
125.54
158.953
163.891
167.141
167.071
165.727
162.687
154.438
145.061
136.847
141.652
149.522
153.779
155.52
156.195
156.522
156.732
170.007
169.586
134.461
158.369
163.55
166.486
166.617
165.358
162.537
150.057
139.073
130.013
138.301
148.039
153.128
155.131
155.877
156.088
155.542
97.2219
105.606
84.0617
110.55
124.791
129.832
137.047
145.533
153.988
163.379
174.91
190.23
210.301
234.265
259.863
287.512
315.311
341.648
365.18
384.964
399.735
407.69
395.249
17.9671
22.5864
2.34633
6.16099
10.8974
12.8765
16.193
20.7195
25.2737
29.6825
35.2104
47.3297
69.9958
97.2262
126.298
157.427
188.726
219.351
246.839
271.076
289.539
299.954
297.798
1.26804
1.27686
1.30125
1.27291
1.30279
1.33432
1.35072
1.2491
1.13663
1.19002
1.26984
1.33986
1.46389
3.00413
10.5926
31.6754
64.0956
100.423
131.233
162.152
186.787
205.252
216.845
1.10927
1.18622
1.17752
1.15804
1.16136
1.17168
1.16286
1.1062
1.04504
1.05231
1.12419
1.17854
1.21192
1.18902
1.24403
1.28311
1.72436
6.35083
27.031
58.3911
88.808
114.762
138.328
0.953031
1.02685
1.02025
1.01216
1.01082
1.00894
0.998446
0.973533
0.954756
0.959419
0.992163
1.03153
1.05877
1.07771
1.10163
1.12519
1.11667
1.12869
1.20678
1.95715
11.134
31.1356
53.4093
0.795737
0.870247
0.865952
0.861842
0.859792
0.857102
0.851115
0.842347
0.837876
0.846012
0.866411
0.892106
0.9153
0.936504
0.95692
0.976886
0.992287
1.01633
1.00613
0.947587
1.00612
1.0454
2.61134
0.636216
0.713402
0.711306
0.709578
0.708656
0.70768
0.70613
0.705035
0.707428
0.716657
0.7326
0.752368
0.772855
0.793238
0.813322
0.832816
0.850887
0.864883
0.871427
0.875751
0.887909
0.876886
0.854927
0.473598
0.555055
0.555753
0.556227
0.557099
0.558368
0.560168
0.563341
0.569362
0.579584
0.594018
0.611469
0.630508
0.650262
0.670278
0.690104
0.709055
0.7258
0.739576
0.751986
0.754706
0.735915
0.714686
0.310979
0.395492
0.399512
0.402125
0.404851
0.408177
0.412458
0.418333
0.426588
0.437833
0.452094
0.468842
0.487346
0.506959
0.527198
0.547569
0.567486
0.586097
0.60207
0.611499
0.592326
0.540224
0.491127
0.156056
0.237703
0.243629
0.247598
0.251823
0.256782
0.262906
0.270663
0.280513
0.292773
0.307467
0.32434
0.342978
0.362924
0.383739
0.404936
0.425889
0.445608
0.461933
0.468559
0.437585
0.387487
0.305476
0.00397922
0.0831488
0.0882544
0.0927372
0.0978802
0.104045
0.111548
0.12071
0.131824
0.14508
0.160501
0.177955
0.197191
0.217885
0.239669
0.262087
0.284506
0.305892
0.324149
0.33413
0.317527
0.295766
0.226988
-0.150569
-0.0713055
-0.0674278
-0.0629091
-0.0572018
-0.0501646
-0.0416113
-0.0313357
-0.0191456
-0.004914
0.0113854
0.029688
0.0498439
0.0716269
0.0947556
0.118853
0.14338
0.167483
0.189646
0.206924
0.212237
0.21243
0.210301
-0.307524
-0.227495
-0.224361
-0.219809
-0.213703
-0.206007
-0.196622
-0.185422
-0.172276
-0.157091
-0.139833
-0.12052
-0.09923
-0.0760987
-0.0513105
-0.0251224
0.00210214
0.0298232
0.0571919
0.082951
0.105412
0.125587
0.149868
-0.466867
-0.385832
-0.382986
-0.378317
-0.371869
-0.363638
-0.353566
-0.341569
-0.327557
-0.311451
-0.293203
-0.272792
-0.250236
-0.22559
-0.198928
-0.17037
-0.140078
-0.108263
-0.0752043
-0.0411386
-0.00582343
0.0326582
0.0794262
-0.628539
-0.546369
-0.543528
-0.538666
-0.531889
-0.52319
-0.512526
-0.499831
-0.485028
-0.468046
-0.448816
-0.427283
-0.403411
-0.377177
-0.348553
-0.317521
-0.28406
-0.248108
-0.209543
-0.168038
-0.122803
-0.0718903
-0.0120099
-0.792483
-0.709093
-0.706104
-0.701003
-0.6939
-0.684778
-0.673592
-0.660275
-0.644756
-0.626956
-0.60679
-0.584168
-0.559003
-0.531206
-0.500657
-0.467222
-0.430729
-0.390924
-0.347449
-0.299743
-0.246905
-0.187562
-0.119862
-0.95865
-0.873989
-0.870777
-0.865423
-0.858008
-0.848502
-0.836855
-0.822992
-0.806833
-0.788291
-0.767264
-0.743634
-0.717267
-0.688018
-0.655695
-0.620072
-0.580863
-0.537692
-0.49007
-0.437356
-0.378714
-0.313168
-0.239815
-1.127
-1.04106
-1.03759
-1.032
-1.0243
-1.01445
-1.0024
-0.988071
-0.971358
-0.952168
-0.930387
-0.905871
-0.878453
-0.84794
-0.814085
-0.776594
-0.735106
-0.689162
-0.638193
-0.581515
-0.518329
-0.447852
-0.369529
-1.29751
-1.2103
-1.20657
-1.20078
-1.19283
-1.1827
-1.17031
-1.15559
-1.13842
-1.1187
-1.0963
-1.07106
-1.04279
-1.01125
-0.976181
-0.937224
-0.893972
-0.845907
-0.792404
-0.732714
-0.665992
-0.591407
-0.508324
-1.47013
-1.3817
-1.37776
-1.37179
-1.36366
-1.35329
-1.34064
-1.32562
-1.3081
-1.28798
-1.26512
-1.23934
-1.21045
-1.17819
-1.14225
-1.10228
-1.05784
-1.00836
-0.953168
-0.89144
-0.822185
-0.744306
-0.656717
-1.64485
-1.55526
-1.55116
-1.54507
-1.53679
-1.52627
-1.51344
-1.49821
-1.48047
-1.4601
-1.43695
-1.41084
-1.38157
-1.34889
-1.31248
-1.27199
-1.22695
-1.17681
-1.12085
-1.05818
-0.987602
-0.907617
-0.816355
-1.82163
-1.73096
-1.72679
-1.72061
-1.71225
-1.70164
-1.68872
-1.67339
-1.65556
-1.63508
-1.61182
-1.58561
-1.55623
-1.52344
-1.48695
-1.44642
-1.40142
-1.3514
-1.29567
-1.23331
-1.16298
-1.08279
-0.989887
-2.00052
-1.90882
-1.90466
-1.89845
-1.89006
-1.87944
-1.86652
-1.85121
-1.83341
-1.81298
-1.7898
-1.76368
-1.73445
-1.70188
-1.66569
-1.62559
-1.58122
-1.53209
-1.47762
-1.41697
-1.34886
-1.27124
-1.1806
-2.18161
-2.08886
-2.08476
-2.07855
-2.0702
-2.05965
-2.04683
-2.03164
-2.014
-1.99378
-1.97085
-1.94505
-1.91621
-1.88413
-1.8486
-1.80936
-1.76614
-1.7186
-1.66633
-1.60876
-1.54498
-1.47343
-1.39098
-2.36494
-2.27111
-2.26707
-2.26092
-2.25267
-2.24226
-2.22962
-2.21468
-2.19732
-2.17745
-2.15494
-2.12965
-2.10143
-2.07011
-2.03551
-1.99748
-1.95585
-1.91042
-1.86105
-1.80762
-1.74993
-1.68768
-1.61998
-2.55048
-2.45557
-2.45157
-2.44551
-2.43741
-2.42722
-2.41486
-2.40026
-2.38332
-2.36394
-2.34201
-2.3174
-2.28999
-2.25964
-2.22623
-2.18966
-2.14987
-2.10685
-2.06073
-2.01187
-1.96097
-1.90949
-1.86044
-2.73816
-2.64217
-2.6382
-2.63228
-2.6244
-2.61449
-2.6025
-2.58834
-2.57193
-2.55317
-2.53196
-2.5082
-2.48177
-2.45256
-2.4205
-2.38555
-2.34774
-2.30718
-2.26424
-2.21963
-2.17476
-2.13242
-2.0984
-2.92785
-2.83081
-2.82689
-2.82114
-2.81354
-2.804
-2.79246
-2.77884
-2.76307
-2.74505
-2.7247
-2.70193
-2.67662
-2.6487
-2.61812
-2.58488
-2.54905
-2.51084
-2.47068
-2.42946
-2.3888
-2.35178
-2.32428
-3.1193
-3.02135
-3.01751
-3.012
-3.00474
-2.99564
-2.98464
-2.97167
-2.95664
-2.93949
-2.92012
-2.89845
-2.87441
-2.84791
-2.81891
-2.78743
-2.75355
-2.71749
-2.67966
-2.64086
-2.60252
-2.56715
-2.53911
-3.31223
-3.21361
-3.20994
-3.20475
-3.1979
-3.18933
-3.17895
-3.16671
-3.15254
-3.13635
-3.11808
-3.09766
-3.07499
-3.05003
-3.02272
-2.99307
-2.96115
-2.92711
-2.89129
-2.85427
-2.81703
-2.78121
-2.74944
-3.50643
-3.4074
-3.40403
-3.39925
-3.3929
-3.38493
-3.37526
-3.36385
-3.35062
-3.33552
-3.31847
-3.2994
-3.27825
-3.25495
-3.22945
-3.20174
-3.17185
-3.13988
-3.10602
-3.07062
-3.0342
-2.99761
-2.96204
-3.70185
-3.6026
-3.59968
-3.5954
-3.58963
-3.58234
-3.57347
-3.56297
-3.55078
-3.53686
-3.52113
-3.50355
-3.48404
-3.46255
-3.43901
-3.4134
-3.38573
-3.356
-3.32434
-3.29088
-3.25583
-3.21949
-3.18213
-3.8986
-3.79917
-3.79681
-3.79311
-3.78799
-3.78144
-3.77343
-3.76392
-3.75286
-3.74021
-3.72593
-3.70996
-3.69223
-3.67269
-3.65128
-3.62799
-3.60277
-3.57561
-3.54657
-3.5157
-3.48306
-3.44868
-3.41255
-4.09686
-3.99719
-3.99539
-3.99229
-3.98786
-3.9821
-3.97501
-3.96655
-3.9567
-3.94543
-3.93269
-3.91844
-3.90262
-3.8852
-3.86612
-3.84535
-3.82288
-3.79868
-3.7728
-3.7453
-3.71624
-3.68567
-3.65366
-4.2967
-4.19667
-4.19536
-4.19285
-4.18912
-4.18418
-4.17805
-4.17071
-4.16214
-4.15232
-4.14123
-4.12881
-4.11504
-4.09988
-4.08331
-4.06531
-4.04586
-4.02501
-4.00282
-3.97942
-3.95499
-3.92979
-3.90418
-4.49804
-4.39753
-4.39663
-4.39467
-4.39162
-4.38753
-4.3824
-4.37622
-4.36898
-4.36069
-4.35132
-4.34083
-4.32923
-4.31649
-4.30259
-4.28756
-4.27141
-4.25422
-4.23614
-4.21741
-4.19837
-4.17957
-4.16197
-4.70064
-4.59963
-4.59907
-4.59762
-4.59525
-4.592
-4.58788
-4.5829
-4.57706
-4.57035
-4.56277
-4.55431
-4.54498
-4.53477
-4.5237
-4.5118
-4.49914
-4.48587
-4.47218
-4.45843
-4.44512
-4.43312
-4.42396
-4.90417
-4.80277
-4.80249
-4.80152
-4.79981
-4.7974
-4.79433
-4.79057
-4.78616
-4.78108
-4.77536
-4.769
-4.76201
-4.75444
-4.7463
-4.73767
-4.72866
-4.71943
-4.71027
-4.70157
-4.69395
-4.68841
-4.68676
-5.10832
-5.00665
-5.00663
-5.00613
-5.00507
-5.00352
-5.00148
-4.99897
-4.99601
-4.9926
-4.98878
-4.98457
-4.98001
-4.97514
-4.97002
-4.96475
-4.95947
-4.95436
-4.94974
-4.94601
-4.94378
-4.94399
-4.94826
-5.31287
-5.21109
-5.21138
-5.21135
-5.21095
-5.21024
-5.20925
-5.20799
-5.20649
-5.20478
-5.2029
-5.20087
-5.19877
-5.19666
-5.19462
-5.19276
-5.19125
-5.19029
-5.19015
-5.19122
-5.19399
-5.1992
-5.20805
-5.51697
-5.41582
-5.41647
-5.41689
-5.41715
-5.41729
-5.41734
-5.41733
-5.4173
-5.4173
-5.41736
-5.41755
-5.41793
-5.4186
-5.41966
-5.42125
-5.42353
-5.4267
-5.431
-5.43674
-5.44421
-5.45383
-5.46621
-5.72134
-5.62008
-5.62112
-5.62199
-5.62288
-5.62384
-5.62491
-5.62612
-5.62753
-5.62918
-5.63115
-5.63349
-5.63631
-5.63971
-5.6438
-5.64875
-5.65473
-5.66193
-5.67055
-5.68077
-5.69269
-5.70625
-5.72108
178.317
206.299
175.978
172.087
277.306
257.454
245.724
229.436
220.182
220.813
222.553
224.494
157.114
167.305
177.436
187.165
78.707
96.6329
115.134
133.267
11.3003
27.2997
43.822
68.9552
0.949218
0.90258
1.02848
3.72931
0.721458
0.724208
0.64222
0.472143
0.460749
0.458708
0.475158
0.540954
0.222464
0.214202
0.25659
0.340675
0.1268
0.101683
0.138292
0.212934
0.222693
0.241135
0.301862
0.377552
0.191719
0.226727
0.271411
0.325109
0.134888
0.172478
0.215937
0.265379
0.0509281
0.0897041
0.131595
0.176
-0.0529531
-0.0136273
0.0275272
0.0700615
-0.169356
-0.128802
-0.0868988
-0.0439445
-0.295034
-0.252374
-0.208429
-0.1635
-0.429009
-0.383416
-0.336279
-0.287899
-0.571929
-0.522605
-0.471107
-0.417717
-0.726004
-0.672384
-0.615431
-0.555284
-0.895319
-0.837621
-0.774737
-0.706321
-1.08603
-1.02649
-0.959408
-0.883244
-1.30498
-1.24991
-1.18606
-1.10968
-1.55434
-1.51496
-1.47062
-1.41879
-1.82616
-1.8114
-1.80528
-1.81291
-2.08597
-2.09156
-2.11355
-2.1618
-2.31749
-2.32476
-2.34382
-2.37894
-2.52683
-2.52729
-2.53435
-2.55003
-2.72856
-2.72122
-2.71738
-2.7185
-2.93333
-2.91905
-2.90555
-2.89332
-3.14907
-3.13083
-3.11193
-3.09242
-3.37965
-3.36115
-3.34192
-3.3221
-3.62476
-3.60872
-3.59243
-3.57632
-3.88199
-3.87002
-3.85799
-3.84602
-4.14872
-4.14256
-4.13713
-4.13218
-4.42052
-4.42133
-4.42474
-4.43142
-4.69124
-4.69725
-4.70695
-4.7216
-4.95772
-4.96622
-4.97828
-4.99535
-5.22054
-5.22995
-5.24218
-5.25835
-5.48041
-5.48999
-5.50183
-5.51714
-5.73456
-5.74209
-5.7502
-5.75995
148.216
151.026
147.689
165.616
164.589
166.093
166.317
165.381
160.717
146.559
131.877
125.04
135.265
146.053
152.323
154.68
155.511
155.666
155.475
215.851
210.008
184.216
165.953
165.714
166.082
166.274
166.132
162.387
148.567
133.643
126.242
134.252
145.469
152.017
154.351
155.149
155.363
155.462
225.267
215.063
167.55
166.127
166.077
166.287
166.338
166.047
164.115
156.342
145.233
136.108
139.083
147.787
152.742
154.445
154.984
155.08
154.908
197.763
198.844
166.162
166.192
166.315
166.467
166.377
165.791
163.96
159.963
155.468
150.419
148.216
150.784
153.576
154.648
154.887
154.833
153.514
155.156
176.145
166.084
166.203
166.387
166.561
166.468
165.607
164.031
161.792
159.578
157.335
153.542
150.847
153.106
154.563
154.814
154.976
155.431
102.758
160.453
166.122
166.131
166.252
166.145
166.638
165.284
163.872
162.578
162.009
161.572
158.456
148.486
151.424
154.082
154.614
154.992
155.69
30.6878
105.453
165.143
165.77
164.299
145.367
135.676
163.73
163.148
162.57
163.046
163.279
165.454
151.001
151.234
153.432
154.308
154.62
155.205
0.222038
24.3844
100.013
145.594
94.3155
65.6138
105.312
138.196
155.831
162.28
162.899
161.993
161.678
149.243
98.7058
130.403
154.672
154.44
175.719
0.667246
1.04964
8.08396
30.9257
38.8258
30.0081
39.9179
73.3941
128.781
160.77
161.877
160.301
158.87
45.7272
33.7836
101.55
137.085
159.805
300.428
0.526296
0.844337
0.985178
1.17774
1.28628
1.33271
2.11123
11.3311
45.3552
109.169
150.215
160.768
149.544
22.0258
26.0712
60.2627
138.717
250.556
482.255
0.405345
0.846849
0.938853
1.03102
1.11928
1.19944
1.25448
1.26409
1.35301
13.5405
53.5313
88.0185
74.162
22.8814
5.86681
8.03639
61.7221
263.189
533.244
0.498956
0.765286
0.861158
0.875252
0.917219
1.04749
1.1315
1.16128
1.18441
1.18855
1.32128
2.79837
2.17654
2.62606
2.67924
2.83967
3.40633
106.104
371.672
0.419154
0.59448
0.704787
0.758706
0.819449
0.919175
1.00184
1.0581
1.10659
1.17174
1.26465
1.44195
1.79817
2.21608
2.45332
2.65369
2.85619
2.64405
187.686
0.337059
0.462832
0.56379
0.643054
0.720493
0.804494
0.884383
0.956396
1.02864
1.11357
1.22363
1.38827
1.6551
1.953
2.18202
2.53052
2.9136
15.1064
92.4038
0.237171
0.344302
0.441634
0.526968
0.610503
0.692671
0.773013
0.852636
0.936262
1.03056
1.14201
1.27795
1.46452
1.66892
1.73878
2.20622
3.18652
2.6553
56.8323
0.128078
0.229643
0.325687
0.414895
0.499642
0.581359
0.661656
0.743157
0.829504
0.924666
1.03071
1.14345
1.26785
1.36507
1.20903
0.483321
-16.0378
11.1062
43.3357
0.0143178
0.116471
0.214192
0.305207
0.389759
0.46952
0.54715
0.625909
0.709104
0.799375
0.896961
0.994655
1.0906
1.16262
1.09478
2.12275
-28.0463
-11.4227
48.2471
-0.102536
0.00438015
0.106073
0.198602
0.281202
0.356178
0.42747
0.499068
0.57458
0.656139
0.744702
0.836508
0.935174
1.04085
0.940725
0.795802
-23.4001
-12.0742
93.378
-0.222
-0.106113
0.00241844
0.0965415
0.174386
0.240072
0.300109
0.359993
0.423404
0.492589
0.570086
0.659447
0.779671
1.00509
1.17932
-3.00806
-24.3515
24.7929
137.9
-0.344261
-0.213657
-0.0936568
0.00199876
0.0697978
0.118874
0.161218
0.20424
0.250951
0.30244
0.361277
0.435457
0.546562
0.800308
1.09162
-27.8832
-30.5819
58.3422
135.491
-0.470863
-0.316146
-0.175938
-0.0795678
-0.0330834
-0.0128629
0.00402403
0.0256612
0.0514285
0.0779125
0.102989
0.130746
0.14562
0.0749932
-3.7353
16.2529
41.8009
60.5651
81.7718
-0.606919
-0.412252
-0.233211
-0.139405
-0.140632
-0.168772
-0.183228
-0.18337
-0.179823
-0.185083
-0.213057
-0.269965
-0.344451
0.106668
8.48708
14.5357
11.5105
30.097
56.0877
-0.766444
-0.507326
-0.248432
-0.169637
-0.28286
-0.381656
-0.419171
-0.429878
-0.442094
-0.480024
-0.57553
-0.796408
-1.55749
-2.56122
-2.92649
-2.75553
-2.15551
-0.827502
24.4771
-0.981535
-0.644792
-0.219579
-0.199257
-0.585478
-0.720684
-0.724993
-0.714046
-0.724333
-0.784085
-0.934448
-1.27977
-2.18282
-3.30773
-3.25206
-3.05069
-2.40327
-2.41097
4.85532
-1.3168
-0.980294
-0.771653
-1.32641
-1.39221
-1.29785
-1.09935
-1.01685
-1.00219
-1.06329
-1.22732
-1.57038
-2.31363
-3.37215
-3.40258
-3.10471
-2.55743
-2.28843
-3.7615
-1.84153
-2.07689
-2.21806
-3.27271
-3.28339
-2.01492
-1.45851
-1.28722
-1.2434
-1.29008
-1.42503
-1.66784
-2.04976
-2.59116
-2.74759
-2.56432
-2.31054
-2.67703
-3.0984
-2.28504
-2.97647
-2.32808
-2.9561
-3.0507
-2.10802
-1.59605
-1.46052
-1.42637
-1.46119
-1.55329
-1.69611
-1.86654
-2.02135
-2.07459
-1.9958
-2.00355
-1.6199
-10.2433
-2.457
-2.63976
-2.24467
-2.79895
-2.22854
-1.56947
-1.49339
-1.54672
-1.56476
-1.59547
-1.64518
-1.70666
-1.75464
-1.76992
-1.76196
-1.74089
-1.82629
-1.78426
-1.00024
-2.58675
-2.7623
-3.15078
-3.37859
-1.37113
-1.40932
-1.51418
-1.6688
-1.70988
-1.72483
-1.73255
-1.73434
-1.72544
-1.69435
-1.6049
-1.5036
-1.36568
-1.72444
-1.78604
-2.72927
-2.79253
-2.95491
-2.94875
-1.79664
-1.47509
-1.81603
-1.9167
-1.91022
-1.87781
-1.83713
-1.78888
-1.7448
-1.69989
-1.51775
-1.29161
-0.837928
-0.580265
0.421417
-2.8786
-2.8561
-2.81665
-2.66178
-2.3051
-2.07019
-2.23188
-2.17566
-2.15877
-2.06737
-1.96586
-1.85628
-1.74397
-1.62966
-1.43309
-1.21179
-0.936618
-0.589042
-3.54907
-3.06447
-3.0022
-2.89618
-2.78019
-2.8823
-2.84714
-2.79032
-2.51267
-2.38701
-2.30307
-2.12841
-1.93359
-1.73799
-1.54133
-1.37751
-1.21072
-0.999861
-0.22692
7.76814
-3.29443
-3.2395
-3.15394
-3.38899
-4.24317
-4.11255
-3.58071
-3.2292
-2.90259
-2.59471
-2.36704
-2.0358
-1.75345
-1.48398
-1.32004
-1.26679
-1.4392
-2.14396
-1.8722
-3.55587
-3.53375
-3.56476
-4.09866
-4.70087
-4.81005
-4.36691
-3.88655
-3.52682
-2.99912
-2.70753
-2.19537
-1.81859
-1.47894
-1.28102
-1.17179
-1.25474
-1.26269
-1.24511
-3.83051
-3.80948
-3.87688
-4.2365
-4.9106
-4.86916
-4.72163
-4.44336
-4.0431
-3.51381
-3.15482
-2.45936
-1.98866
-1.57821
-1.27994
-1.08022
-1.12627
-1.05765
-1.20788
-4.12534
-4.10017
-4.1091
-4.75231
-5.16835
-4.88141
-4.99452
-4.89752
-4.60127
-4.00596
-3.57746
-2.87525
-2.35538
-1.91205
-1.50186
-1.1136
-0.99587
-1.66867
-0.265821
-4.44603
-4.49044
-4.6628
-4.93798
-5.21604
-5.47575
-5.70499
-5.59588
-5.22112
-4.6204
-4.09453
-3.50497
-3.04816
-2.66643
-2.30171
-1.67954
-2.0793
-3.21304
-1.75665
-4.7505
-4.84926
-5.06875
-5.53565
-5.78415
-6.25804
-6.55593
-6.48588
-6.03255
-5.44082
-4.85942
-4.40441
-4.21621
-4.00219
-4.07582
-3.14036
-3.39875
-3.85327
-3.95338
-5.02896
-5.1633
-5.33916
-5.81149
-6.20615
-6.66475
-6.98481
-7.0214
-6.65435
-6.05177
-5.63227
-5.45127
-5.92822
-6.13947
-6.39893
-5.11512
-3.76834
-4.32859
-4.52245
-5.28934
-5.43942
-5.70341
-6.0143
-6.38891
-6.80938
-7.15511
-7.21692
-6.90147
-6.4732
-6.19494
-6.35537
-5.8992
-7.82662
-8.90359
-16.6059
-4.902
-5.06708
-5.26638
-5.54503
-5.68394
-6.06042
-6.1526
-6.31356
-6.5724
-6.90165
-6.98744
-6.89799
-6.58928
-6.46216
-6.90199
-8.43103
-7.20007
-7.07989
-6.1193
-5.87888
-6.04452
-5.79074
-5.77851
-5.85829
-6.11131
-6.19894
-6.23883
-6.21479
-6.31221
-6.43439
-7.04746
-6.44229
-6.2421
-7.05467
-10.5085
-7.12053
-7.89177
-6.07586
-5.89348
-5.80756
-4.9118
626.355
631.097
639.087
641.841
641.594
643.18
648.018
655.69
665.75
678.107
692.865
710.142
729.987
752.32
777.061
803.954
830.729
849.169
851.99
866.083
854.505
844.162
901.641
565.895
570.638
578.588
581.586
581.691
583.599
588.651
596.427
606.508
618.846
633.58
650.839
670.632
692.842
717.191
743.083
768.74
789.258
796.527
804.361
798.298
747.937
827.493
503.596
508.108
515.997
519.703
520.615
523.202
528.687
536.651
546.754
559.039
573.721
590.973
610.789
632.965
657.063
682.186
706.341
725.999
737.54
752.286
751.189
660.848
745.873
439.664
443.622
451.613
456.795
458.837
462.255
468.238
476.394
486.484
498.669
513.269
530.52
550.406
572.637
596.632
621.355
644.958
664.756
679.083
693.131
689.994
626.632
692.416
374.444
377.132
385.728
393.622
396.824
400.967
407.373
415.66
425.676
437.702
452.186
469.452
489.477
511.87
535.948
560.605
584.138
604.464
620.241
632.38
631.207
605.915
667.741
308.642
308.054
317.454
330.678
334.775
339.364
346.069
354.415
364.287
376.089
390.419
407.725
427.978
450.674
475.044
499.961
523.823
544.888
561.945
574.614
579.58
582.712
641.887
243.905
236.555
247.32
267.926
272.565
277.287
284.234
292.602
302.267
313.767
327.896
345.28
365.886
389.041
413.926
439.42
463.951
485.977
504.327
518.33
527.467
541.353
591.869
184.731
166.673
178.185
204.828
209.626
214.499
221.749
230.16
239.573
250.679
264.531
282.024
303.123
326.936
352.58
378.97
404.478
427.694
447.458
462.952
473.931
485.859
509.422
170.783
170.861
171.069
170.845
170.46
170.292
170.586
171.587
171.175
178.332
167.865
155.159
156.041
160.657
164.673
163.801
182.965
482.775
643.423
170.712
170.765
171.038
170.793
170.353
170.137
170.371
171.597
170.55
158.082
151.454
150.22
151.138
154.418
156.728
157.323
157.355
229.675
590.662
170.627
170.581
171.027
170.747
170.166
169.808
169.828
171
160.147
155.132
151.129
149.557
151.143
154.226
156.458
157.224
156.966
168.557
494.29
170.534
170.133
170.894
170.692
169.863
169.323
168.985
168.757
161.095
155.007
150.589
148.978
151.048
153.982
156.083
156.967
156.961
158.126
346.357
170.469
169.818
164.571
170.623
169.34
168.715
168.042
166.56
160.915
155.371
149.086
146.967
150.192
153.594
155.704
156.668
156.901
157.356
178.275
170.479
170.612
141.651
167.81
168.261
168.022
167.206
165.112
160.023
153.697
145.436
143.02
148.426
152.928
155.285
156.32
156.717
156.985
169.947
170.583
168.223
135.357
169.034
165.617
167.297
166.584
164.468
158.749
149.749
139.854
137.468
146.468
151.977
154.835
155.955
156.412
156.551
165.674
170.608
155.883
144.01
164.754
165.161
166.693
166.204
164.119
156.893
144.963
132.09
132.43
144.286
150.949
154.373
155.609
156.093
156.231
161.567
125.587
90.991
93.0487
121.861
126.888
133.222
141.267
149.702
158.51
168.774
182.001
199.686
222
246.716
273.533
301.522
328.743
353.83
375.612
393.058
404.737
405.552
326.466
47.0961
10.016
1.8237
10.3654
11.5601
14.4629
18.1202
22.7478
27.5794
31.9943
40.0542
57.538
83.2071
111.781
141.41
173.189
204.308
233.428
259.551
281.122
295.978
300.967
291.519
1.27593
1.27637
1.24394
1.28241
1.32247
1.34679
1.32505
1.16681
1.1477
1.23532
1.30291
1.38593
1.68012
5.92024
18.9179
45.269
84.0657
115.02
147.607
175.17
196.797
212.054
219.595
1.18247
1.18212
1.1549
1.15717
1.1671
1.17099
1.14416
1.06608
1.0413
1.08836
1.15216
1.20158
1.19739
1.21109
1.28112
1.25176
3.41203
13.3441
41.8522
75.1473
101.743
126.949
149.238
1.02815
1.02351
1.01264
1.01096
1.01052
1.00535
0.987486
0.961532
0.953601
0.971301
1.01295
1.04677
1.06788
1.08894
1.11346
1.13149
1.17087
1.10543
1.04934
5.16489
20.8935
40.4782
67.4512
0.871812
0.867962
0.863121
0.860672
0.85873
0.854612
0.846778
0.839011
0.840039
0.85507
0.879288
0.904102
0.926024
0.946753
0.966907
0.985915
1.00822
0.99793
0.980979
1.0127
1.0312
1.13182
5.8731
0.714114
0.712154
0.710222
0.70904
0.708228
0.706964
0.705371
0.705568
0.71106
0.723973
0.74222
0.762631
0.783045
0.803351
0.82314
0.842189
0.858968
0.867218
0.874491
0.886124
0.890032
0.824594
0.930064
0.553774
0.555247
0.55588
0.556589
0.557691
0.559168
0.5615
0.565895
0.573902
0.58634
0.602453
0.620867
0.640322
0.660267
0.680244
0.699757
0.717819
0.732854
0.74612
0.756117
0.746794
0.72142
0.715075
0.391095
0.397584
0.400806
0.403414
0.406426
0.410164
0.415148
0.422116
0.431818
0.444612
0.460201
0.477922
0.497045
0.517031
0.537399
0.557629
0.577023
0.59453
0.608087
0.608423
0.566036
0.515765
0.469826
0.231351
0.240955
0.245582
0.249646
0.254184
0.25967
0.26655
0.275301
0.286333
0.299827
0.315656
0.333467
0.352815
0.373252
0.394324
0.415491
0.435993
0.454417
0.467073
0.461044
0.409665
0.354844
0.251367
0.0800842
0.0860612
0.0904501
0.0951995
0.100816
0.107609
0.115901
0.126007
0.138178
0.152526
0.168988
0.18737
0.207379
0.228667
0.250833
0.273347
0.295421
0.315609
0.330612
0.331966
0.304381
0.273867
0.167314
-0.0721845
-0.0692844
-0.0653089
-0.0602126
-0.0538609
-0.0460909
-0.0367018
-0.0254905
-0.0122886
0.00298005
0.0202937
0.0395478
0.060549
0.0830448
0.106713
0.131107
0.155558
0.178943
0.199126
0.21249
0.211778
0.210267
0.214942
-0.227872
-0.226045
-0.22228
-0.216952
-0.21006
-0.201533
-0.191257
-0.179098
-0.164941
-0.14872
-0.13043
-0.110115
-0.0878838
-0.0638959
-0.038371
-0.0116104
0.015946
0.0436221
0.0703626
0.0947513
0.115424
0.136739
0.16984
-0.386037
-0.384615
-0.380877
-0.375315
-0.36798
-0.358837
-0.347814
-0.33482
-0.31977
-0.302597
-0.283268
-0.261779
-0.23817
-0.212503
-0.184875
-0.155427
-0.124343
-0.0918698
-0.0582906
-0.0236986
0.0127919
0.0545168
0.108909
-0.54661
-0.545198
-0.541339
-0.535516
-0.527783
-0.518108
-0.506437
-0.492698
-0.476814
-0.458715
-0.43834
-0.415641
-0.390591
-0.363163
-0.333338
-0.301096
-0.266398
-0.229164
-0.189192
-0.145981
-0.098222
-0.0433351
0.0226713
-0.709486
-0.707873
-0.703806
-0.697702
-0.689594
-0.679447
-0.667205
-0.652796
-0.636146
-0.617174
-0.595792
-0.571909
-0.54544
-0.516283
-0.484309
-0.44937
-0.411258
-0.369673
-0.32417
-0.274033
-0.218192
-0.154863
-0.0823781
-0.874625
-0.872672
-0.868357
-0.861974
-0.853518
-0.842951
-0.830206
-0.815205
-0.797866
-0.778095
-0.755783
-0.730802
-0.703014
-0.672254
-0.638312
-0.600936
-0.559798
-0.514472
-0.464396
-0.408832
-0.346867
-0.277506
-0.200051
-1.04198
-1.0396
-1.03505
-1.02841
-1.01965
-1.00871
-0.99553
-0.980019
-0.96208
-0.94161
-0.918482
-0.892536
-0.863598
-0.831447
-0.795814
-0.756375
-0.712722
-0.664344
-0.610614
-0.550785
-0.484045
-0.409687
-0.327403
-1.21148
-1.2087
-1.20394
-1.19708
-1.18804
-1.17679
-1.16325
-1.14732
-1.12889
-1.10784
-1.08405
-1.05732
-1.02744
-0.99418
-0.957212
-0.916163
-0.870575
-0.819878
-0.763384
-0.700285
-0.62973
-0.550951
-0.463524
-1.38312
-1.37996
-1.37504
-1.368
-1.35876
-1.34726
-1.33343
-1.31718
-1.29838
-1.2769
-1.25261
-1.2253
-1.19476
-1.1607
-1.1228
-1.08065
-1.03377
-0.981526
-0.923179
-0.857819
-0.784394
-0.701786
-0.609006
-1.55681
-1.55342
-1.54839
-1.54121
-1.53182
-1.52015
-1.50613
-1.48966
-1.47062
-1.44888
-1.42428
-1.39662
-1.36568
-1.33117
-1.29277
-1.25007
-1.20256
-1.14961
-1.09042
-1.02396
-0.948894
-0.863524
-0.765836
-1.73246
-1.72907
-1.72397
-1.71671
-1.70723
-1.69547
-1.68136
-1.6648
-1.64566
-1.62381
-1.5991
-1.57133
-1.54028
-1.50568
-1.46722
-1.42451
-1.37707
-1.3243
-1.26539
-1.19924
-1.12427
-1.03815
-0.937456
-1.91019
-1.90696
-1.90182
-1.89453
-1.88503
-1.87327
-1.85917
-1.84263
-1.82353
-1.80175
-1.77712
-1.74947
-1.7186
-1.68425
-1.64615
-1.60397
-1.55728
-1.50557
-1.44813
-1.38395
-1.31141
-1.22785
-1.12864
-2.09013
-2.08706
-2.08192
-2.07465
-2.06521
-2.05353
-2.03954
-2.02314
-2.00422
-1.98266
-1.95832
-1.93102
-1.90059
-1.86681
-1.82946
-1.78827
-1.74294
-1.69309
-1.63825
-1.57772
-1.51032
-1.43386
-1.34389
-2.27235
-2.26937
-2.26425
-2.25706
-2.24773
-2.23622
-2.22244
-2.20631
-2.18771
-2.16653
-2.14265
-2.11591
-2.08616
-2.05323
-2.01694
-1.97713
-1.93361
-1.88624
-1.83485
-1.77932
-1.71941
-1.65462
-1.58339
-2.45683
-2.45385
-2.44879
-2.44172
-2.43258
-2.42132
-2.40785
-2.39209
-2.37394
-2.3533
-2.33005
-2.30405
-2.27519
-2.24332
-2.20834
-2.17017
-2.12876
-2.08416
-2.03661
-1.98661
-1.93517
-1.88437
-1.83883
-2.64349
-2.64046
-2.63548
-2.62859
-2.6197
-2.60876
-2.5957
-2.58042
-2.56285
-2.54288
-2.52041
-2.49533
-2.46752
-2.43689
-2.40339
-2.367
-2.32779
-2.28598
-2.24208
-2.1971
-2.15301
-2.11381
-2.08802
-2.83226
-2.8291
-2.82424
-2.81758
-2.80901
-2.79848
-2.78591
-2.77123
-2.75435
-2.73518
-2.71362
-2.68959
-2.66299
-2.63375
-2.60183
-2.56728
-2.53022
-2.49096
-2.45012
-2.40891
-2.36956
-2.33631
-2.31726
-3.02294
-3.01965
-3.01498
-3.0086
-3.00043
-2.99039
-2.97841
-2.96442
-2.94834
-2.93008
-2.90958
-2.88673
-2.86147
-2.83372
-2.80348
-2.77078
-2.73577
-2.69875
-2.66031
-2.62151
-2.58425
-2.55184
-2.52991
-3.21522
-3.21196
-3.20755
-3.20154
-3.19384
-3.18437
-3.17307
-3.15987
-3.1447
-3.12748
-3.10814
-3.08661
-3.0628
-3.03667
-3.00818
-2.97738
-2.94438
-2.9094
-2.87288
-2.83559
-2.7988
-2.7646
-2.73619
-3.40882
-3.40588
-3.40184
-3.39628
-3.38912
-3.38031
-3.36978
-3.35747
-3.34331
-3.32724
-3.30919
-3.28909
-3.26687
-3.24247
-3.21587
-3.18706
-3.15612
-3.12317
-3.08849
-3.05249
-3.01587
-2.9796
-2.94505
-3.60364
-3.60129
-3.59773
-3.59271
-3.58618
-3.5781
-3.56842
-3.55709
-3.54404
-3.52922
-3.51258
-3.49404
-3.47355
-3.45103
-3.42647
-3.39982
-3.37112
-3.34041
-3.30782
-3.27353
-3.2378
-3.20091
-3.16311
-3.79978
-3.79816
-3.79515
-3.79073
-3.78489
-3.77762
-3.76886
-3.75858
-3.74674
-3.73328
-3.71816
-3.70131
-3.68269
-3.66222
-3.63988
-3.61562
-3.58943
-3.56132
-3.53136
-3.4996
-3.46609
-3.43084