/*--------------------------------*- C++ -*----------------------------------*\
| =========                 |                                                 |
| \\      /  F ield         | OpenFOAM: The Open Source CFD Toolbox           |
|  \\    /   O peration     | Version:  v1912                                 |
|   \\  /    A nd           | Website:  www.openfoam.com                      |
|    \\/     M anipulation  |                                                 |
\*---------------------------------------------------------------------------*/
FoamFile
{
    version     2.0;
    format      ascii;
    class       volScalarField;
    location    "0.5";
    object      p_rgh;
}
// * * * * * * * * * * * * * * * * * * * * * * * * * * * * * * * * * * * * * //

dimensions      [1 -1 -2 0 0 0 0];


internalField   nonuniform List<scalar> 
9072
(
641.697
642.454
650.264
655.908
656.434
656.71
659.92
666.251
675.149
686.351
699.892
715.898
734.459
755.562
779.108
805.002
832.426
856.202
867.67
866.777
874.212
865.275
893.557
639.335
640.81
648.611
654.36
655.211
655.836
659.319
665.807
674.763
685.961
699.477
715.463
733.999
755.021
778.348
803.582
829.699
853.717
869.465
865.741
882.044
834.619
848.822
635.343
637.289
644.796
650.937
652.597
653.984
658.032
664.822
673.871
685.044
698.499
714.453
733.002
754.035
777.246
802.018
827.006
849.417
865.562
873.129
899.285
799.036
799.065
630.233
631.977
638.95
646.167
649.155
651.519
656.234
663.361
672.485
683.586
696.939
712.848
731.437
752.548
775.754
800.286
824.742
846.798
863.844
876.255
891.462
812.74
831.746
624.939
625.111
631.143
640.786
645.514
648.763
654.055
661.453
670.591
681.56
694.76
710.613
729.287
750.563
773.905
798.446
822.79
844.973
863.066
876.719
886.269
862.426
876.04
621.273
616.536
620.467
635.17
642.065
645.802
651.488
659.069
668.151
678.919
691.911
707.698
726.515
748.073
771.717
796.534
821.144
843.812
862.956
877.854
887.597
885.593
915.306
622.251
606.956
606.386
627.776
638.811
642.466
648.404
656.139
665.114
675.608
688.32
704.032
723.08
745.066
769.191
794.557
819.774
843.231
863.525
879.77
891.27
899.149
930.637
630.813
600.226
593.854
621.103
634.903
638.407
644.629
652.586
661.43
671.581
683.916
699.523
718.893
741.499
766.302
792.509
818.652
843.182
864.786
882.506
895.623
905.485
925.296
170.803
170.81
171.001
171.025
170.658
170.348
170.379
171.016
171.711
172.712
177.488
160.874
157.344
160.56
164.938
168.093
179.639
246.394
736.747
170.796
170.781
170.989
171.053
170.638
170.275
170.254
170.872
172.006
161.154
153.733
150.836
150.325
152.819
155.912
157.121
157.61
165.344
538.561
170.785
170.699
170.942
171.108
170.589
170.074
169.894
170.278
170.41
159.015
152.532
150.215
150.134
152.813
155.728
157.075
157.385
157.851
229.728
170.782
170.548
170.663
171.136
170.48
169.73
169.334
169.053
166.91
158.302
152.77
149.434
149.904
152.729
155.398
156.843
157.223
157.056
168.866
170.821
170.504
319.041
185.017
170.259
169.201
168.669
167.743
164.66
158.28
152.467
147.371
148.489
152.262
155.079
156.553
157.071
157.444
160.928
170.907
170.616
436.951
463.439
170.218
168.411
168.008
166.723
163.331
157.247
150.147
143.258
145.614
151.217
154.668
156.228
156.83
157.371
160.426
170.978
170.785
485.195
526.377
174.103
167.509
167.439
166.095
163.295
154.884
145.431
137.762
142.563
149.889
154.147
155.888
156.563
156.89
161.579
183.685
218.694
560.967
584.816
168.856
166.913
167.043
165.785
163.333
152.061
139.561
131.075
139.352
148.466
153.554
155.558
156.303
156.514
169.819
661.988
607.774
586.161
612.601
626.955
631.999
639.216
647.702
656.156
665.547
677.079
692.399
712.469
736.433
762.031
789.68
817.48
843.816
867.348
887.133
901.904
909.859
897.418
361.089
451.418
8.25694
104.28
199.689
242.857
310.537
383.843
446.592
500.97
557.589
630.785
693.749
724.589
753.662
784.79
816.09
846.714
874.202
898.439
916.902
927.317
925.161
2.08319
2.02942
2.05381
2.02547
2.05535
2.08688
2.10328
2.00166
1.88919
1.94309
2.02622
2.09699
2.22385
51.7488
239.357
703.993
816.653
852.981
883.79
914.71
939.344
957.81
969.402
2.04962
2.06398
2.05527
2.03579
2.03911
2.04943
2.04061
1.98395
1.92279
2.0953
2.16402
2.10965
2.15792
2.13501
2.16112
2.16779
17.3214
161.508
695.414
936.143
966.56
992.513
1016.08
2.01858
2.0298
2.02319
2.01511
2.01377
2.01189
2.00139
1.97648
1.9577
1.96237
1.99511
2.03448
2.06172
2.08069
2.1046
2.16326
2.14411
2.13176
2.20983
38.7274
345.123
1005.88
1056.36
1.98648
1.99839
1.9941
1.98999
1.98794
1.98525
1.97926
1.97049
1.96602
1.97416
1.99488
2.02025
2.04675
2.06727
2.08508
2.10526
2.12054
2.14456
2.13447
2.07585
2.13443
2.17383
64.0695
1.95215
1.96674
1.96465
1.96292
1.962
1.96102
1.95947
1.95838
1.96077
1.97
1.98594
2.00572
2.0262
2.04658
2.06668
2.08631
2.10423
2.11918
2.12644
2.13054
2.1414
2.13168
2.10854
1.91472
1.93358
1.93428
1.93475
1.93563
1.93689
1.93869
1.94187
1.94789
1.95811
1.97255
1.99001
2.00903
2.02879
2.04883
2.06866
2.08758
2.10433
2.1181
2.13051
2.13426
2.14784
2.10148
1.8773
1.89921
1.90323
1.90585
1.90857
1.9119
1.91618
1.92205
1.93031
1.94155
1.95582
1.97256
1.99107
2.01068
2.03092
2.05129
2.07121
2.08982
2.10579
2.11522
2.09605
2.07902
2.02104
1.84757
1.86662
1.87255
1.87651
1.88074
1.8857
1.89182
1.89958
1.90943
1.92169
1.93638
1.95326
1.97189
1.99184
2.01266
2.03385
2.05481
2.07452
2.09085
2.09748
2.06666
2.01693
1.93443
1.82069
1.83726
1.84237
1.84685
1.85199
1.85816
1.86566
1.87482
1.88594
1.89919
1.91461
1.93207
1.9513
1.972
1.99378
2.0162
2.03862
2.06
2.07826
2.08824
2.07174
2.066
2.06803
1.79133
1.808
1.81188
1.8164
1.8221
1.82914
1.8377
1.84797
1.86016
1.87439
1.89069
1.90899
1.92915
1.95093
1.97406
1.99816
2.02269
2.04679
2.06895
2.08623
2.09154
2.09174
2.90961
1.75958
1.77701
1.78014
1.78469
1.7908
1.79849
1.80788
1.81908
1.83223
1.84741
1.86467
1.88398
1.90527
1.9284
1.95319
1.97938
2.0066
2.03432
2.06169
2.08745
2.10991
2.13009
2.15437
1.72543
1.74387
1.74671
1.75138
1.75783
1.76606
1.77613
1.78813
1.80214
1.81825
1.83649
1.8569
1.87946
1.90411
1.93077
1.95933
1.98962
2.02143
2.05449
2.08856
2.12387
2.16236
2.20912
1.68895
1.70852
1.71136
1.71623
1.723
1.7317
1.74237
1.75506
1.76986
1.78685
1.80608
1.82761
1.85148
1.87772
1.90634
1.93737
1.97083
2.00678
2.04535
2.08685
2.13209
2.183
2.24288
1.6502
1.67099
1.67398
1.67908
1.68619
1.69531
1.7065
1.71981
1.73533
1.75313
1.7733
1.79592
1.82108
1.84888
1.87943
1.91287
1.94936
1.98916
2.03264
2.08034
2.13318
2.19253
2.26023
1.60923
1.63129
1.63451
1.63986
1.64728
1.65678
1.66843
1.68229
1.69845
1.71699
1.73802
1.76165
1.78802
1.81726
1.84959
1.88521
1.92442
1.96759
2.01521
2.06793
2.12657
2.19212
2.26547
1.56607
1.58942
1.59289
1.59848
1.60618
1.61602
1.62807
1.64241
1.65912
1.67831
1.70009
1.72461
1.75202
1.78254
1.81639
1.85388
1.89537
1.94132
1.99228
2.04896
2.11215
2.18263
2.26095
1.52077
1.54537
1.5491
1.5549
1.56284
1.57297
1.58536
1.60008
1.61725
1.63698
1.65938
1.68461
1.71289
1.74442
1.77949
1.81845
1.8617
1.90977
1.96327
2.02296
2.08968
2.16427
2.24735
1.47334
1.49917
1.50311
1.50908
1.51721
1.52757
1.54022
1.55525
1.57277
1.59289
1.61575
1.64152
1.67042
1.70268
1.73862
1.77858
1.82303
1.87251
1.9277
1.98943
2.05868
2.13656
2.22415
1.42381
1.4508
1.4549
1.46099
1.46927
1.47979
1.49262
1.50785
1.52559
1.54597
1.56912
1.59522
1.62449
1.65717
1.69358
1.73408
1.77911
1.82925
1.88521
1.94789
2.01846
2.09845
2.18971
1.37222
1.40029
1.40446
1.41064
1.419
1.42961
1.44253
1.45785
1.47569
1.49617
1.51943
1.54564
1.57502
1.60781
1.6443
1.68483
1.72983
1.77985
1.83558
1.89794
1.96827
2.04846
2.14136
1.31852
1.34763
1.35178
1.358
1.36638
1.377
1.38993
1.40523
1.42304
1.44346
1.46665
1.49276
1.52199
1.55457
1.59075
1.63085
1.67523
1.72435
1.77883
1.83948
1.90759
1.98521
2.07584
1.26262
1.29278
1.29688
1.30309
1.31144
1.32199
1.33481
1.35
1.36764
1.38786
1.41079
1.43659
1.46543
1.49751
1.53304
1.57228
1.6155
1.66303
1.71531
1.77288
1.83666
1.90821
1.99066
1.20449
1.23572
1.23976
1.24592
1.25417
1.26458
1.27721
1.29216
1.30951
1.32938
1.3519
1.37719
1.40541
1.43673
1.47132
1.50935
1.55099
1.59642
1.64578
1.69922
1.7569
1.81915
1.88685
1.14415
1.17646
1.18046
1.18652
1.19462
1.20481
1.21717
1.23177
1.24871
1.26809
1.29002
1.31463
1.34204
1.37239
1.4058
1.44237
1.48216
1.52518
1.5713
1.62016
1.67106
1.72254
1.77159
1.08166
1.11506
1.11902
1.12495
1.13283
1.14273
1.15472
1.16888
1.18529
1.20406
1.22526
1.24903
1.27546
1.30466
1.33672
1.37167
1.40948
1.45004
1.49299
1.53759
1.58247
1.62481
1.65883
1.01717
1.05161
1.05553
1.06128
1.06888
1.07842
1.08996
1.10358
1.11935
1.13737
1.15772
1.18049
1.2058
1.23372
1.2643
1.29754
1.33337
1.37158
1.41174
1.45296
1.49362
1.53064
1.55814
0.950917
0.986266
0.990101
0.995613
1.00288
1.01197
1.02297
1.03595
1.05097
1.06813
1.0875
1.10916
1.13321
1.15971
1.18871
1.22019
1.25406
1.29013
1.32796
1.36676
1.40509
1.44046
1.4685
0.883182
0.919202
0.922866
0.928064
0.934908
0.943485
0.953861
0.966102
0.980276
0.996459
1.01473
1.03515
1.05782
1.08278
1.11009
1.13974
1.17166
1.2057
1.24152
1.27854
1.31578
1.3516
1.38337
0.814177
0.850607
0.853972
0.858759
0.865102
0.873076
0.882741
0.894155
0.907381
0.922487
0.939537
0.958603
0.979757
1.00306
1.02856
1.05627
1.08615
1.11812
1.15198
1.18739
1.2238
1.26039
1.29597
0.743954
0.780604
0.783524
0.787805
0.793567
0.800862
0.809734
0.820235
0.83242
0.846346
0.862067
0.879647
0.899157
0.920655
0.944192
0.969797
0.997474
1.0272
1.05887
1.09233
1.12737
1.16372
1.20107
0.672395
0.709224
0.711588
0.71529
0.720408
0.726959
0.734969
0.74448
0.755538
0.768184
0.782466
0.798441
0.81617
0.83571
0.857112
0.88041
0.90563
0.932782
0.961827
0.992696
1.02534
1.05971
1.09585
0.599332
0.636405
0.638205
0.641302
0.645735
0.651494
0.658586
0.667041
0.676889
0.688163
0.700902
0.715154
0.730969
0.748394
0.767473
0.788238
0.810714
0.834909
0.86079
0.888291
0.917351
0.947918
0.979933
0.524684
0.562119
0.563423
0.565932
0.56967
0.574604
0.580732
0.588073
0.596644
0.606462
0.61756
0.629979
0.643751
0.658906
0.675476
0.693481
0.712923
0.733777
0.755967
0.779364
0.803794
0.828998
0.854602
0.448534
0.486447
0.487341
0.489302
0.49235
0.496444
0.501575
0.507755
0.514989
0.523282
0.532655
0.543138
0.554744
0.567487
0.581379
0.596417
0.612567
0.629753
0.647827
0.66656
0.685606
0.704398
0.722007
0.37113
0.409535
0.410097
0.411549
0.413922
0.417171
0.421283
0.426263
0.43211
0.438817
0.446394
0.454853
0.46419
0.474398
0.485469
0.497368
0.510023
0.523302
0.536986
0.550738
0.564049
0.576052
0.585212
0.292789
0.33159
0.331875
0.332846
0.334556
0.336958
0.340036
0.343788
0.348207
0.35328
0.359001
0.365364
0.372348
0.379924
0.388058
0.396688
0.405702
0.41493
0.424095
0.432789
0.440408
0.445948
0.447602
0.213838
0.25291
0.252927
0.25343
0.254484
0.256038
0.258074
0.260584
0.263551
0.266954
0.270774
0.274987
0.279552
0.284422
0.289538
0.294806
0.300091
0.305196
0.309822
0.313547
0.315776
0.31557
0.311302
0.134481
0.173659
0.173369
0.173406
0.173805
0.174509
0.1755
0.176761
0.178263
0.179972
0.181858
0.18388
0.18598
0.188093
0.190135
0.191989
0.193501
0.194468
0.194605
0.193533
0.190759
0.185553
0.176703
0.0555809
0.0941251
0.0934812
0.0930537
0.092799
0.0926573
0.0926052
0.0926147
0.0926457
0.0926517
0.0925893
0.0924027
0.0920162
0.091345
0.0902854
0.0886994
0.086421
0.0832516
0.0789445
0.0732126
0.0657373
0.0561232
0.0437383
-0.0235995
0.0150619
0.0140247
0.0131502
0.0122621
0.0113033
0.010237
0.00902487
0.00761837
0.00596205
0.003997
0.00165084
-0.00116766
-0.00456297
-0.00865985
-0.0136106
-0.0195899
-0.0267896
-0.0354091
-0.0456275
-0.0575486
-0.0711027
-0.0859368
680.485
708.468
477.551
436.033
904.669
884.817
873.087
856.8
972.739
973.37
975.11
977.052
1034.87
1045.06
1055.19
1064.92
1081.66
1099.58
1118.08
1136.22
381.084
1082.1
1171.97
1197.1
2.20284
2.1562
2.28278
177.886
2.10027
2.10304
2.07034
1.85929
1.96455
2.2171
2.38026
2.61648
1.85147
1.84323
1.88564
1.97047
1.88105
1.90679
2.14187
2.82064
3.41611
3.44337
3.50409
3.03814
2.19622
2.23123
2.38477
2.5029
2.26458
2.30217
2.34563
2.39508
2.30582
2.3446
2.38649
2.43089
2.32713
2.36646
2.40761
2.45015
2.33593
2.37648
2.41838
2.46134
2.33544
2.3781
2.42205
2.46698
2.32666
2.37226
2.41939
2.46777
2.30894
2.35826
2.40976
2.46315
2.28006
2.33368
2.39063
2.45078
2.23593
2.29363
2.35651
2.42493
2.17042
2.22996
2.29704
2.3732
2.07666
2.13173
2.19558
2.27196
1.95249
1.99188
2.03622
2.08804
1.80587
1.82063
1.82675
1.81912
1.67125
1.66567
1.64368
1.59543
1.56493
1.55766
1.5386
1.50348
1.48079
1.48033
1.47327
1.45758
1.40425
1.41159
1.41543
1.41431
1.32467
1.33896
1.35246
1.36469
1.23413
1.25237
1.27127
1.29078
1.12875
1.14725
1.16648
1.1863
1.00883
1.02487
1.04116
1.05727
0.876792
0.888772
0.900796
0.912767
0.735253
0.741407
0.746838
0.751792
0.588643
0.587841
0.58443
0.577748
0.443121
0.437112
0.427411
0.412765
0.301841
0.293336
0.281278
0.264208
0.164213
0.154802
0.142572
0.1264
0.0295406
0.0199591
0.00811376
-0.00718675
-0.0994195
-0.106944
-0.115059
-0.124805
454.384
636.241
649.75
584.262
165.097
166.596
166.819
166.055
163.295
148.128
132.523
125.651
136.478
146.557
152.826
155.182
156.013
156.169
183.118
843.214
837.372
811.575
172.369
166.369
166.709
166.901
167.041
165.614
150.514
134.409
127.006
135.57
146.097
152.644
154.978
155.776
155.991
198.421
977.824
967.62
403.473
166.883
166.862
167.039
167.09
166.8
165.227
160.029
148.645
139.092
140.198
148.54
153.494
155.197
155.736
155.833
186.388
1075.51
1076.6
167.075
167.07
167.199
167.349
167.255
166.669
164.839
160.852
156.442
151.933
149.099
151.662
154.454
155.525
155.765
155.711
158.009
1158.1
1071.08
167.087
167.206
167.39
167.564
167.471
166.61
165.034
162.795
160.581
158.338
154.545
151.858
154.137
155.566
155.817
155.979
156.434
1230.9
1273.07
167.251
167.259
167.381
174.975
167.767
166.412
165
163.706
163.138
162.702
160.578
157.517
152.554
155.211
155.742
156.12
166.126
1281.41
1358.79
649.15
167.023
264.48
914.571
1091.81
243.219
164.403
163.824
164.342
164.628
280.073
152.261
152.491
154.685
155.566
155.873
1115.67
1.60938
1263.6
1477.52
1345.38
1446.03
1444.05
1483.75
1516.63
634.119
163.665
164.372
167.98
286.567
199.295
1316.63
952.159
156.207
155.845
1485.52
2.24098
2.55736
348.586
1271.67
1542.34
1533.63
1543.54
1577.02
1632.41
257.658
163.416
163.356
350.018
1548.06
1537.35
1605.12
1493.96
469.587
1798.35
2.95401
2.54541
2.61634
2.8089
3.16506
2.97804
45.284
545.729
1674.04
1736.72
753.385
162.802
963.006
1650.39
1654.78
1689.02
1767.47
1817.88
2110.24
3.02078
2.79459
2.69576
3.92345
4.01171
2.95402
3.00859
3.01829
3.10742
698.892
1753.28
1804.35
1810.57
1478.09
188.225
284.32
1808.53
2016.32
2286.35
3.26597
2.95035
2.75801
2.91538
3.09293
2.92683
3.01081
3.04058
3.06371
3.06786
3.25933
88.1345
38.7219
4.52774
4.55886
4.71942
5.37977
1953.01
2248.8
2.47604
2.59924
2.70929
2.76321
2.82396
2.9237
3.00634
3.06261
3.11109
3.17624
3.26915
3.44688
3.80342
4.22059
4.45783
4.6582
4.86082
1549.2
2108.4
2.46676
2.59253
2.69349
2.77276
2.8502
2.93419
3.01408
3.08609
3.15833
3.24326
3.35332
3.51796
3.78479
4.0827
4.31171
4.66037
5.2659
1906.22
2214.24
2.49206
2.59919
2.69653
2.78186
2.8654
2.94756
3.02791
3.10753
3.19115
3.28545
3.3969
3.53284
3.71941
3.92381
3.99371
4.63592
8.48411
992.828
2303.43
2.50817
2.60973
2.70577
2.79498
2.87973
2.96145
3.04174
3.12324
3.20959
3.30475
3.4108
3.52354
3.64794
3.74516
3.59045
309.888
1240.99
602.342
2408.51
2.5196
2.62175
2.71947
2.81049
2.89504
2.9748
3.05243
3.13119
3.21439
3.30466
3.40224
3.49994
3.59588
3.6679
3.60429
565.209
2457.47
1131.17
2537.57
2.52794
2.63486
2.73655
2.82908
2.91168
2.98666
3.05795
3.12955
3.20506
3.28662
3.37518
3.46699
3.56565
3.67133
3.70169
3.89977
2586.33
2597.64
2702.67
2.53367
2.64956
2.75809
2.85221
2.93006
2.99574
3.05578
3.11567
3.17908
3.24826
3.32576
3.41512
3.53534
3.76077
3.93604
610.159
2709.59
2758.73
2857
2.53661
2.66721
2.78721
2.88287
2.95067
2.99974
3.04209
3.08511
3.13182
3.18331
3.24214
3.31633
3.42743
3.68351
8.42226
2827.37
2827.56
2916.41
2060.78
2.5352
2.68992
2.83013
2.9265
2.97298
2.9932
3.01009
3.03172
3.05749
3.08398
3.10905
3.13681
3.15199
3.24989
1137.39
1449.44
1885.68
1885.59
1841.8
2.52433
2.719
2.89804
2.99184
2.99062
2.96248
2.94802
2.94788
2.95143
2.94617
2.91819
2.86128
2.78763
3.69501
1045.02
1564.4
1523.34
903.389
550.783
2.49
2.74912
3.00801
3.08681
2.97358
2.87479
2.83727
2.82657
2.81435
2.77642
2.68091
2.46004
1.70181
25.4818
0.332921
0.5041
1.12496
153.741
2367.39
2.4001
2.73685
3.16449
3.18479
2.79622
2.66096
2.65665
2.66759
2.65731
2.59755
2.44719
2.10187
1.23156
25.3091
0.132782
0.338731
5.35612
11.6604
1573.72
2.19004
2.53069
31.286
37.5698
2.1411
2.2091
2.40748
2.48998
2.50464
2.44354
2.27951
1.93646
1.19321
0.146363
6.015
0.404359
6.33062
3.08597
936.168
1.7905
41.7586
33.4372
40.5353
19.9696
1.61874
2.17353
2.34481
2.38863
2.34195
2.207
1.96419
1.58227
1.04097
0.884666
1.06773
5.54189
2.89565
1646.96
1.47219
37.786
5.05768
1.1582
0.942209
1.65088
2.16118
2.29671
2.33086
2.29604
2.20393
2.06112
1.89092
1.73591
1.68266
1.76144
3.70403
9.12373
1695.95
1.42542
1.24266
47.188
64.2337
1.7074
2.31298
2.38903
2.3357
2.31766
2.28695
2.23725
2.17604
2.12791
2.11253
2.12048
2.14155
4.38875
4.28217
349.7
1.42086
1.24532
20.0179
65.8156
67.5536
15.5853
2.49356
2.33881
2.29773
2.28278
2.27529
2.27352
2.2822
4.10962
2.88228
2.51192
6.78861
13.3941
114.893
1.40354
1.34028
1.17791
5.13062
2.5469
14.1052
15.5136
2.21666
2.22259
2.255
2.29568
2.34426
2.38802
4.29156
4.47378
2.91526
6.46662
23.8974
8.47584
1.3794
1.40191
1.44136
1.59623
2.05116
2.27581
23.2863
4.41885
2.0994
2.19064
2.29215
2.40173
2.51403
2.63268
3.59419
3.30282
5.76
5.1467
473.005
1.31874
1.381
1.48703
1.60671
1.50551
1.5378
1.59475
19.0491
2.00561
2.08017
2.25479
2.44961
2.64521
2.84189
3.00576
4.46446
8.30831
40.1002
1024.76
1.21396
1.2689
1.35445
18.358
16.5898
0.41275
0.929465
1.28147
12.9747
2.38163
2.14143
2.4726
2.75495
3.02441
3.18837
3.47918
8.17733
31.7539
31.1561
1.07772
1.09985
3.08354
18.2522
-0.0486571
-0.173703
0.267654
0.748016
6.46786
12.2444
1.92703
2.43823
2.815
3.15512
3.37355
7.80478
3.86961
3.7431
4.08725
0.928276
0.949437
0.882573
7.73035
3.97824
-0.100134
0.664466
0.316469
0.720024
12.435
1.61063
2.29944
2.77118
3.1811
4.09899
7.8049
7.78759
4.08772
3.93499
0.758633
0.783801
2.27367
94.8203
20.435
0.0869667
0.587794
1.53674
0.306402
12.2435
1.30806
2.00895
2.53247
3.01819
5.30778
5.33174
5.44947
132.577
192.15
0.563136
0.518732
27.1356
14.0376
146.046
87.2175
-0.517928
1.00332
-0.0818342
11.7715
0.91502
1.50503
1.96336
2.34903
32.7715
171.782
173.024
70.4581
3.37435
0.383868
0.285104
0.0657884
32.9159
60.9475
150.083
0.293744
-1.34596
0.594809
3.27447
0.380227
0.730165
0.918626
1.24656
154.195
2.00458
1.73672
1.2822
1.18281
0.230596
0.0967547
-0.0757766
40.5711
4.28773
9.64731
-1.72479
-1.76135
-1.34525
-0.752013
-0.372411
-0.191525
-0.627706
200.988
0.418645
42.3417
1.56306
0.932151
0.838396
0.0954107
0.209367
1.04858
-0.607542
-0.61312
-1.3916
-1.76988
-1.83169
-1.47038
-1.05707
-0.809601
-0.970105
10.8506
52.8819
3.774
240.843
30.7247
0.327806
3.63043
-0.034935
-0.17368
-0.542325
-0.627123
-0.184254
-0.730459
-1.39122
-1.47701
-1.36998
-0.964927
-0.951703
-1.39059
53.5715
-0.0430204
-0.918884
28.0756
-0.368934
-0.533482
-0.263221
-0.143362
-0.220988
-0.433082
-0.563745
-0.60369
-0.579089
-0.671273
-0.798749
0.77927
-0.619904
-0.606552
-1.418
132.452
-1.07464
33.4922
-0.440715
-0.25834
-0.172408
3.26763
641.07
645.812
653.802
656.556
656.308
657.895
662.733
670.405
680.464
692.822
707.58
724.856
744.702
767.034
791.775
818.669
845.444
863.772
864.884
880.631
868.651
858.866
916.346
639.469
644.211
652.162
655.159
655.264
657.172
662.224
670
680.082
692.42
707.153
724.412
744.205
766.415
790.765
816.656
842.314
862.831
868.977
877.928
871.625
810.716
901.016
636.028
640.541
648.429
652.135
653.047
655.634
661.119
669.083
679.186
691.471
706.153
723.405
743.222
765.397
789.495
814.619
838.773
858.431
869.972
884.718
882.121
772.22
877.861
630.954
634.913
642.904
648.086
650.128
653.545
659.529
667.685
677.775
689.96
704.56
721.811
741.697
763.927
787.923
812.646
836.249
856.047
870.373
884.422
881.284
787.502
883.632
624.594
627.281
635.878
643.772
646.973
651.116
657.523
665.81
675.825
687.852
702.336
719.602
739.627
762.02
786.098
810.755
834.288
854.613
870.39
882.529
881.356
852.49
917.843
617.65
617.063
626.463
639.686
643.783
648.373
655.077
663.423
673.295
685.098
699.428
716.734
736.987
759.683
784.053
808.97
832.832
853.896
870.954
883.623
888.588
891.721
950.892
611.772
604.422
615.187
635.793
640.432
645.154
652.101
660.469
670.134
681.634
695.763
713.147
733.753
756.908
781.793
807.287
831.819
853.844
872.194
886.197
895.334
909.22
959.734
611.457
593.398
604.911
631.554
636.352
641.225
648.474
656.886
666.298
677.404
691.256
708.75
729.849
753.662
779.305
805.696
831.204
854.42
874.183
889.677
900.657
912.585
936.148
170.797
170.875
171.084
170.859
170.475
170.307
170.601
171.601
171.19
179.525
170.997
157.771
158.666
163.29
167.767
168.719
187.882
487.691
647.94
170.785
170.839
171.112
170.867
170.427
170.21
170.444
171.671
171.41
160.525
151.53
150.296
151.214
154.495
156.805
157.398
157.456
236.256
615.186
170.759
170.713
171.16
170.88
170.299
169.94
169.96
171.134
162.352
155.266
151.267
149.708
151.293
154.376
156.607
157.358
157.1
168.768
538.43
170.725
170.398
171.251
170.884
170.054
169.515
169.176
168.951
161.724
155.276
150.781
149.169
151.24
154.173
156.274
157.158
157.153
158.321
409.81
170.719
170.068
341.897
170.927
169.59
168.965
168.292
166.81
161.177
155.622
149.336
147.217
150.442
153.844
155.954
156.918
157.151
157.606
184.235
170.788
255.488
450.056
218.268
168.573
168.331
167.515
165.421
160.333
154.007
145.745
143.331
148.735
153.237
155.594
156.629
157.026
157.3
171.182
170.951
304.254
502.871
422.252
165.997
167.665
166.951
164.836
159.601
150.118
140.309
138.382
147.005
152.345
155.203
156.323
156.78
156.919
321.167
171.038
537.443
570.496
385.02
165.593
167.12
166.631
164.546
158.951
145.421
133.151
133.491
145.136
151.376
154.8
156.036
156.52
156.658
471.564
627.755
593.152
592.956
624.018
629.055
635.39
643.435
651.87
660.678
670.942
684.169
701.855
724.169
748.885
775.701
803.69
830.911
855.999
877.78
895.226
906.905
907.72
828.635
634.464
187.655
22.2151
186.567
215.361
275.676
348.285
415.396
475.151
527.213
592.829
666.541
710.479
739.144
768.773
800.553
831.672
860.791
886.914
908.485
923.341
928.33
918.882
2.02849
2.02892
1.9965
2.03496
2.07503
2.09934
2.07761
1.91937
1.90029
1.98999
2.0599
2.14324
10.5464
122.387
426.015
797.827
836.623
867.577
900.164
927.728
949.354
964.611
972.152
2.06022
2.05987
2.03265
2.03492
2.04485
2.04874
2.02191
1.94383
1.94334
2.13135
2.07677
2.14735
2.14344
2.14007
2.16845
2.13347
66.8855
337.494
919.604
952.899
979.494
1004.7
1026.99
2.0311
2.02646
2.01559
2.01391
2.01347
2.0083
1.99043
1.96448
1.95655
1.97425
2.0159
2.04972
2.07085
2.09233
2.12375
2.17341
2.17409
2.10847
4.52765
139.652
665.547
1043.43
1070.4
1.99996
1.99611
1.99127
1.98882
1.98687
1.98276
1.97492
1.96716
1.96818
1.9835
2.00769
2.03254
2.05747
2.07496
2.09515
2.11431
2.13645
2.12627
2.10927
2.141
2.15958
16.7997
195.732
1.96745
1.96549
1.96356
1.96238
1.96157
1.9603
1.95871
1.95891
1.9644
1.97731
1.99556
2.01598
2.03639
2.0567
2.07655
2.09555
2.11231
2.12223
2.1295
2.13963
2.14458
2.07912
2.18368
1.9323
1.93377
1.93441
1.93511
1.93622
1.93769
1.94003
1.94442
1.95243
1.96487
1.98099
1.9994
2.01885
2.03879
2.0588
2.0783
2.09635
2.11138
2.12465
2.13464
2.14628
2.12561
2.09391
1.89482
1.90131
1.90453
1.90714
1.91015
1.91389
1.91887
1.92584
1.93554
1.94833
1.96392
1.98164
2.00077
2.02075
2.04112
2.06135
2.08074
2.09825
2.11181
2.11215
2.06976
2.07628
1.97358
1.86027
1.86987
1.8745
1.87856
1.8831
1.88859
1.89547
1.90422
1.91525
1.92874
1.94457
1.96238
1.98173
2.00217
2.02324
2.04441
2.06491
2.08333
2.09599
2.09012
2.03862
1.98381
1.88035
1.8342
1.84017
1.84456
1.84931
1.85493
1.86172
1.87001
1.88012
1.89229
1.90664
1.9231
1.94148
1.96149
1.98278
2.00494
2.02746
2.04953
2.06972
2.08472
2.08608
2.0585
2.20131
1.92162
1.80712
1.81002
1.814
1.81909
1.82545
1.83322
1.8426
1.85382
1.86702
1.88229
1.8996
1.91885
1.93986
1.96235
1.98602
2.01041
2.03486
2.05825
2.07843
2.0918
2.09109
2.11217
3.39234
1.77663
1.77846
1.78222
1.78755
1.79444
1.80297
1.81324
1.8254
1.83956
1.85578
1.87407
1.89439
1.91662
1.94061
1.96613
1.99289
2.02045
2.04812
2.07486
2.09925
2.11993
2.14124
2.17434
1.74366
1.74508
1.74882
1.75438
1.76172
1.77086
1.78188
1.79488
1.80993
1.8271
1.84643
1.86792
1.89153
1.91719
1.94482
1.97427
2.00535
2.03783
2.07141
2.106
2.14249
2.18421
2.23861
1.70828
1.70969
1.71355
1.71938
1.72711
1.73678
1.74846
1.76219
1.77808
1.79618
1.81655
1.83925
1.8643
1.89173
1.92155
1.9538
1.98849
2.02573
2.0657
2.10891
2.15667
2.21156
2.27756
1.6706
1.67221
1.67628
1.68239
1.69049
1.70064
1.71288
1.72729
1.74394
1.76291
1.7843
1.80818
1.83465
1.8638
1.89578
1.93072
1.96883
2.01041
2.05592
2.10605
2.1619
2.22522
2.29771
1.63066
1.63261
1.63693
1.64331
1.65176
1.66233
1.67508
1.69008
1.70742
1.72719
1.7495
1.77448
1.80227
1.83303
1.86697
1.90435
1.94548
1.99081
2.04089
2.09645
2.15842
2.22778
2.30523
1.5885
1.59087
1.59542
1.60207
1.61083
1.62177
1.63495
1.65046
1.6684
1.68887
1.712
1.73794
1.76688
1.79903
1.83466
1.8741
1.91776
1.96613
2.01986
2.07969
2.14643
2.22079
2.30307
1.54419
1.54698
1.55173
1.5586
1.56763
1.57888
1.59242
1.60835
1.62679
1.64783
1.67163
1.69836
1.72823
1.76149
1.79846
1.83951
1.8851
1.93579
1.99229
2.05539
2.12594
2.20472
2.29215
1.49775
1.50091
1.50583
1.51287
1.52211
1.53361
1.54743
1.56369
1.58249
1.60397
1.62826
1.65557
1.68611
1.72017
1.75807
1.80021
1.8471
1.89934
1.95769
2.02305
2.09647
2.17908
2.27186
1.44926
1.45264
1.45768
1.46485
1.47425
1.48591
1.49993
1.5164
1.53544
1.55718
1.58179
1.60945
1.64039
1.67489
1.71329
1.75599
1.8035
1.85645
1.91564
1.9821
2.05717
2.14254
2.24023
1.39878
1.40217
1.40728
1.41454
1.42402
1.43577
1.44989
1.46645
1.48559
1.50744
1.53215
1.55992
1.59097
1.62557
1.66403
1.70674
1.75418
1.80695
1.86586
1.93201
2.00698
2.0931
2.19379
1.34626
1.34948
1.35462
1.36191
1.37141
1.38317
1.39727
1.41382
1.43291
1.4547
1.47933
1.50697
1.53785
1.57219
1.61029
1.65248
1.69916
1.75088
1.80831
1.8725
1.94503
2.02859
2.12781
1.29151
1.29458
1.29972
1.30699
1.31643
1.32811
1.3421
1.3585
1.37742
1.39898
1.42332
1.45062
1.48105
1.51483
1.55218
1.59337
1.6387
1.68855
1.74339
1.80392
1.87132
1.94778
2.03775
1.23448
1.23747
1.24258
1.24978
1.2591
1.27061
1.28439
1.30053
1.31912
1.3403
1.36418
1.39092
1.42067
1.45361
1.4899
1.52971
1.57322
1.6206
1.67198
1.72751
1.78742
1.85221
1.92344
1.1752
1.17818
1.18324
1.19031
1.19945
1.21071
1.22418
1.23994
1.25809
1.27873
1.30198
1.32797
1.35684
1.38871
1.42369
1.46186
1.50327
1.54787
1.59542
1.64542
1.69686
1.74766
1.7932
1.11373
1.11677
1.12174
1.12864
1.13752
1.14846
1.16153
1.1768
1.19438
1.21435
1.23682
1.2619
1.28971
1.32034
1.35384
1.39022
1.42944
1.47125
1.51515
1.56013
1.60421
1.64342
1.66921
1.05016
1.05332
1.05818
1.06484
1.07341
1.08394
1.09651
1.11119
1.12807
1.14725
1.1688
1.19283
1.21943
1.24867
1.28059
1.31514
1.3522
1.39146
1.4323
1.47351
1.51286
1.54611
1.56516
0.984673
0.987961
0.99264
0.999018
1.00719
1.01723
1.02921
1.0432
1.05928
1.07753
1.09804
1.12088
1.14615
1.17389
1.20414
1.23683
1.27184
1.30886
1.34731
1.38611
1.42337
1.45578
1.47771
0.917587
0.920847
0.925257
0.931273
0.938976
0.948443
0.959744
0.972943
0.988112
1.00533
1.02467
1.0462
1.07001
1.09614
1.12463
1.15543
1.18843
1.22341
1.25993
1.29722
1.33401
1.36821
1.39662
0.849184
0.852131
0.856165
0.861729
0.868882
0.877694
0.888226
0.900538
0.914695
0.930766
0.948814
0.968915
0.991136
1.01553
1.04214
1.07094
1.10189
1.13483
1.16952
1.20551
1.24214
1.27841
1.31295
0.779558
0.781911
0.78547
0.790496
0.797021
0.805098
0.814777
0.826114
0.839163
0.853979
0.87062
0.889157
0.909653
0.932167
0.956735
0.983376
1.01208
1.0428
1.07538
1.10967
1.1454
1.18229
1.22009
0.708619
0.710241
0.713247
0.717669
0.723504
0.73078
0.739534
0.749813
0.761661
0.775119
0.790238
0.807082
0.82571
0.846176
0.868521
0.892776
0.918965
0.947072
0.977037
1.0088
1.04231
1.07756
1.11464
0.636234
0.637129
0.639565
0.64335
0.64845
0.654873
0.662641
0.671789
0.682347
0.694348
0.707836
0.722863
0.739478
0.757724
0.777643
0.799261
0.822597
0.847642
0.874343
0.90263
0.93245
0.963753
0.996482
0.562253
0.562587
0.5645
0.567648
0.571989
0.577517
0.584249
0.592205
0.601396
0.611849
0.623602
0.636694
0.651154
0.667013
0.684298
0.703023
0.723178
0.744712
0.767524
0.791465
0.81632
0.841779
0.867426
0.486703
0.486707
0.488157
0.490693
0.494268
0.498878
0.504533
0.511241
0.519003
0.527831
0.537756
0.5488
0.560972
0.574289
0.588756
0.604356
0.621038
0.638692
0.65713
0.676073
0.695083
0.713424
0.72998
0.409778
0.409633
0.410675
0.412623
0.415439
0.419118
0.423663
0.429078
0.435356
0.442496
0.450513
0.459413
0.469186
0.479827
0.491318
0.503608
0.516597
0.530112
0.54388
0.557492
0.570289
0.581119
0.587977
0.33177
0.331548
0.332232
0.333611
0.335673
0.338412
0.341827
0.345914
0.350662
0.356059
0.362103
0.368781
0.376064
0.383924
0.392317
0.401156
0.410305
0.419544
0.428533
0.436783
0.443525
0.447417
0.446047
0.252995
0.252723
0.253072
0.253892
0.255199
0.256995
0.25927
0.262011
0.265198
0.268812
0.272833
0.277228
0.281952
0.286955
0.292161
0.297458
0.302682
0.307593
0.311831
0.314897
0.316057
0.314079
0.306802
0.173632
0.173295
0.173308
0.173566
0.174119
0.174969
0.176097
0.177483
0.179093
0.180894
0.182855
0.184924
0.187039
0.18913
0.191095
0.192799
0.194069
0.194662
0.194248
0.192397
0.188521
0.181677
0.170257
0.0939651
0.0935689
0.0932226
0.0929107
0.0927143
0.0926202
0.0926037
0.0926305
0.0926544
0.0926319
0.0925154
0.0922393
0.0917218
0.0908715
0.089569
0.087659
0.0849625
0.081258
0.0762758
0.0697144
0.0612287
0.0503296
0.0360895
0.0149601
0.0143617
0.0135803
0.0127123
0.011794
0.0107853
0.00965196
0.00834946
0.00682477
0.00502194
0.00287633
0.000306503
-0.00278634
-0.00651535
-0.0110173
-0.0164591
-0.0230241
-0.0309093
-0.0403096
-0.0513743
-0.0641358
-0.0783952
-0.0936732
699.109
689.985
436.574
432.059
892.917
879.694
864.586
851.042
972.959
974.088
976.163
977.706
1039.95
1050.15
1060.16
1069.5