/*--------------------------------*- C++ -*----------------------------------*\
| =========                 |                                                 |
| \\      /  F ield         | OpenFOAM: The Open Source CFD Toolbox           |
|  \\    /   O peration     | Version:  v1912                                 |
|   \\  /    A nd           | Website:  www.openfoam.com                      |
|    \\/     M anipulation  |                                                 |
\*---------------------------------------------------------------------------*/
FoamFile
{
    version     2.0;
    format      ascii;
    class       surfaceScalarField;
    location    "0.5";
    object      phi;
}
// * * * * * * * * * * * * * * * * * * * * * * * * * * * * * * * * * * * * * //

dimensions      [0 3 -1 0 0 0 0];
oriented        oriented;


internalField   nonuniform List<scalar> 
17936
(
-1.42593e-06
3.14635e-06
-1.72043e-06
2.30125e-06
-2.06498e-06
-2.36272e-07
8.97623e-07
8.29495e-07
-1.72712e-06
-2.75948e-06
4.61948e-06
-1.86e-06
-6.24239e-06
7.55101e-06
-1.30863e-06
-8.53493e-06
9.22495e-06
-6.90019e-07
-9.67282e-06
9.93718e-06
-2.64353e-07
-1.00747e-05
1.01347e-05
-6.0022e-08
-1.01564e-05
1.01677e-05
-1.12746e-08
-1.01854e-05
1.02166e-05
-3.12899e-08
-1.02614e-05
1.03143e-05
-5.28843e-08
-1.03668e-05
1.04087e-05
-4.191e-08
-1.04279e-05
1.04088e-05
1.90427e-08
-1.0329e-05
1.01609e-05
1.68098e-07
-9.86823e-06
9.40093e-06
4.67295e-07
-8.68987e-06
7.64118e-06
1.04869e-06
-6.13757e-06
4.08486e-06
2.05271e-06
-1.50404e-06
-1.31737e-06
2.82142e-06
3.51434e-06
-4.93117e-06
1.41683e-06
6.61565e-06
-6.20375e-06
-4.11898e-07
2.04715e-06
1.75033e-06
-3.79748e-06
2.40276e-06
-1.07659e-05
8.36319e-06
1.31734e-05
-7.48679e-06
-5.68664e-06
-4.80547e-06
6.4028e-06
-1.59733e-06
2.33161e-06
-1.95795e-06
6.14966e-07
-9.8863e-07
7.03993e-07
1.0444e-06
3.48307e-06
-5.23146e-06
-2.9467e-06
4.75673e-06
3.72105e-06
-5.53108e-06
-6.3251e-06
7.58796e-06
2.62406e-06
-3.88692e-06
-8.54463e-06
9.23203e-06
1.409e-06
-2.0964e-06
-9.70337e-06
1.0014e-05
5.79229e-07
-8.89881e-07
-1.0214e-05
1.0345e-05
1.75589e-07
-3.06493e-07
-1.04387e-05
1.05181e-05
6.73923e-08
-1.46745e-07
-1.05972e-05
1.06828e-05
9.46131e-08
-1.80208e-07
-1.07756e-05
1.08719e-05
1.32344e-07
-2.28681e-07
-1.09651e-05
1.1047e-05
1.12721e-07
-1.94588e-07
-1.11089e-05
1.11413e-05
1.22524e-08
-4.46814e-08
-1.11371e-05
1.10884e-05
-1.82315e-07
2.30972e-07
-1.09909e-05
1.08452e-05
-5.26339e-07
6.71946e-07
-1.06617e-05
1.04667e-05
-1.24006e-06
1.43502e-06
-1.03103e-05
1.02034e-05
-2.8879e-06
2.99484e-06
-1.00135e-05
9.29136e-06
-5.42233e-06
6.14445e-06
-7.34911e-06
4.03619e-06
-5.39131e-06
8.70423e-06
-2.94458e-07
-2.82877e-06
1.57904e-07
2.96532e-06
5.24507e-06
-7.70238e-06
3.49072e-06
-1.03341e-06
1.14206e-05
-1.40534e-05
-1.3957e-05
1.65898e-05
1.28852e-05
-7.80819e-06
1.19161e-05
-1.69931e-05
-7.94577e-06
9.43046e-06
-1.48468e-06
2.18843e-06
-1.73697e-06
1.39771e-06
-1.84918e-06
4.58937e-07
1.20678e-06
6.9509e-06
-8.61662e-06
-2.96e-06
4.60829e-06
7.27061e-06
-8.9189e-06
-6.02851e-06
7.16644e-06
5.08872e-06
-6.22666e-06
-8.02801e-06
8.656e-06
2.75186e-06
-3.37985e-06
-9.10586e-06
9.43032e-06
1.203e-06
-1.52747e-06
-9.67326e-06
9.86825e-06
4.63828e-07
-6.58817e-07
-1.00392e-05
1.02012e-05
2.62105e-07
-4.24146e-07
-1.03622e-05
1.05239e-05
2.99789e-07
-4.61517e-07
-1.06837e-05
1.08362e-05
3.50537e-07
-5.02953e-07
-1.09742e-05
1.10906e-05
2.92464e-07
-4.08864e-07
-1.11784e-05
1.1231e-05
8.67586e-08
-1.39425e-07
-1.12429e-05
1.12093e-05
-2.73783e-07
3.07438e-07
-1.11259e-05
1.099e-05
-8.24866e-07
9.60839e-07
-1.08005e-05
1.05608e-05
-1.69912e-06
1.93884e-06
-1.02836e-05
1.00063e-05
-3.19699e-06
3.47422e-06
-9.83056e-06
9.94345e-06
-5.9568e-06
5.84391e-06
-1.03772e-05
1.07395e-05
-9.83707e-06
9.47471e-06
-1.00868e-05
7.10044e-06
-7.17758e-06
1.01639e-05
-1.59842e-06
-3.03659e-06
-2.88916e-06
7.52417e-06
3.95737e-06
-3.35713e-06
-1.76068e-05
1.70066e-05
3.16837e-06
-2.90511e-06
2.00879e-05
-2.03511e-05
-1.08474e-05
1.21808e-05
-1.33338e-06
1.9987e-06
-1.47773e-06
2.33897e-06
-2.85994e-06
2.75289e-07
1.15667e-06
1.01965e-05
-1.16285e-05
-2.68134e-06
4.1517e-06
1.04639e-05
-1.19342e-05
-5.42553e-06
6.4481e-06
7.30209e-06
-8.32466e-06
-7.23445e-06
7.8314e-06
3.9883e-06
-4.58524e-06
-8.29307e-06
8.66762e-06
1.87269e-06
-2.24724e-06
-8.9913e-06
9.28803e-06
9.01153e-07
-1.19789e-06
-9.57154e-06
9.84784e-06
6.40976e-07
-9.17275e-07
-1.01172e-05
1.03758e-05
6.70719e-07
-9.29383e-07
-1.06178e-05
1.08364e-05
6.88479e-07
-9.07037e-07
-1.10253e-05
1.11791e-05
5.44504e-07
-6.98368e-07
-1.1294e-05
1.13668e-05
2.02669e-07
-2.75529e-07
-1.13957e-05
1.13794e-05
-3.32089e-07
3.48371e-07
-1.13179e-05
1.12127e-05
-1.08081e-06
1.18598e-06
-1.10678e-05
1.0891e-05
-2.14408e-06
2.32089e-06
-1.06957e-05
1.05011e-05
-3.71607e-06
3.91065e-06
-1.03283e-05
1.0204e-05
-5.93151e-06
6.05575e-06
-1.02031e-05
1.05223e-05
-8.84295e-06
8.5237e-06
-1.1124e-05
1.11309e-05
-1.13892e-05
1.13823e-05
-9.48372e-06
6.62448e-06
-1.16835e-05
1.45428e-05
-6.04012e-06
6.8728e-06
-1.54138e-05
1.45811e-05
-5.49736e-06
2.71366e-06
1.85826e-05
-1.57989e-05
-1.3404e-05
1.44752e-05
-1.07121e-06
1.73494e-06
-1.33864e-06
3.37082e-06
-3.76712e-06
7.06776e-07
1.68414e-07
1.28195e-05
-1.36947e-05
-1.57946e-06
3.22178e-06
1.3426e-05
-1.50683e-05
-4.63222e-06
5.67059e-06
9.32534e-06
-1.03637e-05
-6.42217e-06
7.00651e-06
5.17543e-06
-5.75977e-06
-7.50154e-06
7.94993e-06
2.65757e-06
-3.10596e-06
-8.3754e-06
8.78966e-06
1.55303e-06
-1.96729e-06
-9.19564e-06
9.59037e-06
1.25408e-06
-1.64881e-06
-9.96727e-06
1.03182e-05
1.23625e-06
-1.58714e-06
-1.06349e-05
1.09107e-05
1.15627e-06
-1.43209e-06
-1.11412e-05
1.13241e-05
8.68182e-07
-1.05108e-06
-1.14589e-05
1.15464e-05
3.56417e-07
-4.43855e-07
-1.15878e-05
1.15852e-05
-3.57346e-07
3.5997e-07
-1.15416e-05
1.14616e-05
-1.2778e-06
1.3578e-06
-1.13515e-05
1.12202e-05
-2.47334e-06
2.60468e-06
-1.10798e-05
1.09466e-05
-4.07066e-06
4.20393e-06
-1.08401e-05
1.07791e-05
-6.14551e-06
6.2065e-06
-1.07624e-05
1.07683e-05
-8.45982e-06
8.45398e-06
-1.0869e-05
1.11524e-05
-1.09901e-05
1.07067e-05
-1.17206e-05
1.2211e-05
-1.55258e-05
1.50354e-05
-1.27309e-05
1.25406e-05
-1.4504e-05
1.46943e-05
-1.04171e-05
5.9562e-06
1.21831e-05
-7.72219e-06
-1.53345e-05
1.59017e-05
-5.67223e-07
1.29162e-06
-1.44302e-06
3.9182e-06
-3.7668e-06
1.71654e-06
-1.36727e-06
1.42588e-05
-1.46081e-05
1.59321e-08
1.93051e-06
1.69253e-05
-1.88717e-05
-3.75524e-06
5.02991e-06
1.15083e-05
-1.2783e-05
-5.84464e-06
6.4325e-06
6.34064e-06
-6.9285e-06
-6.95022e-06
7.46063e-06
3.58869e-06
-4.09909e-06
-7.97729e-06
8.49569e-06
2.43736e-06
-2.95576e-06
-9.00594e-06
9.49688e-06
2.09567e-06
-2.58661e-06
-9.95713e-06
1.03759e-05
1.9757e-06
-2.39451e-06
-1.07445e-05
1.1057e-05
1.72933e-06
-2.04189e-06
-1.13119e-05
1.15103e-05
1.24397e-06
-1.44241e-06
-1.16558e-05
1.17525e-05
5.36937e-07
-6.33601e-07
-1.18041e-05
1.18143e-05
-3.56293e-07
3.46141e-07
-1.17874e-05
1.17292e-05
-1.42698e-06
1.48511e-06
-1.16473e-05
1.15506e-05
-2.71779e-06
2.81448e-06
-1.14497e-05
1.13572e-05
-4.31499e-06
4.40755e-06
-1.12874e-05
1.12543e-05
-6.25148e-06
6.28455e-06
-1.12701e-05
1.13297e-05
-8.42068e-06
8.36107e-06
-1.14096e-05
1.14956e-05
-1.05828e-05
1.04967e-05
-1.18189e-05
1.27751e-05
-1.39551e-05
1.29989e-05
-1.42511e-05
1.46716e-05
-1.46117e-05
1.41912e-05
-1.25963e-05
7.44674e-06
2.68921e-06
2.46034e-06
-1.60795e-05
1.56778e-05
4.01697e-07
3.81756e-07
-7.30856e-07
3.40639e-06
-3.05729e-06
8.26582e-07
-2.38211e-07
1.49409e-05
-1.55293e-05
-7.77531e-07
2.14602e-06
2.06829e-05
-2.20514e-05
-3.58775e-06
4.7268e-06
1.41021e-05
-1.52412e-05
-5.52457e-06
6.14052e-06
7.5364e-06
-8.15236e-06
-6.70722e-06
7.28257e-06
4.63759e-06
-5.21294e-06
-7.87528e-06
8.47263e-06
3.51523e-06
-4.11258e-06
-9.05744e-06
9.61464e-06
3.11378e-06
-3.67099e-06
-1.01311e-05
1.05948e-05
2.83733e-06
-3.30105e-06
-1.09961e-05
1.13292e-05
2.36451e-06
-2.69765e-06
-1.15936e-05
1.17927e-05
1.64073e-06
-1.83986e-06
-1.19328e-05
1.20209e-05
7.27794e-07
-8.15884e-07
-1.20639e-05
1.20687e-05
-3.33768e-07
3.28971e-07
-1.20437e-05
1.19974e-05
-1.53296e-06
1.57918e-06
-1.19379e-05
1.1872e-05
-2.89483e-06
2.96068e-06
-1.18053e-05
1.17446e-05
-4.48404e-06
4.54476e-06
-1.1701e-05
1.16877e-05
-6.30709e-06
6.32035e-06
-1.17151e-05
1.17888e-05
-8.29128e-06
8.21755e-06
-1.19136e-05
1.20788e-05
-1.03714e-05
1.02062e-05
-1.22627e-05
1.25657e-05
-1.24146e-05
1.21116e-05
-1.32031e-05
1.34803e-05
-1.37046e-05
1.34273e-05
-1.20008e-05
7.64154e-06
-7.33498e-06
1.16943e-05
-1.45098e-05
1.24965e-05
2.01338e-06
-1.66747e-06
2.17669e-06
2.97727e-06
-3.48649e-06
-3.57805e-06
5.24858e-06
1.65999e-05
-1.82704e-05
-6.05848e-06
5.79767e-06
2.27093e-05
-2.24485e-05
-5.38045e-06
5.33893e-06
1.58986e-05
-1.58571e-05
-5.6105e-06
6.05382e-06
8.71736e-06
-9.16068e-06
-6.59505e-06
7.19839e-06
5.81958e-06
-6.42292e-06
-7.83248e-06
8.46626e-06
4.74004e-06
-5.37382e-06
-9.07764e-06
9.65513e-06
4.24841e-06
-4.8259e-06
-1.01901e-05
1.06729e-05
3.78183e-06
-4.26458e-06
-1.10949e-05
1.14527e-05
3.04723e-06
-3.4051e-06
-1.17492e-05
1.19907e-05
2.0558e-06
-2.29729e-06
-1.21836e-05
1.23297e-05
9.15895e-07
-1.06199e-06
-1.24231e-05
1.24595e-05
-3.28304e-07
2.91938e-07
-1.24396e-05
1.23766e-05
-1.63834e-06
1.7014e-06
-1.22934e-05
1.22124e-05
-3.02447e-06
3.1055e-06
-1.21455e-05
1.20973e-05
-4.59177e-06
4.64e-06
-1.20726e-05
1.20786e-05
-6.32405e-06
6.31807e-06
-1.2121e-05
1.22045e-05
-8.1401e-06
8.05665e-06
-1.23338e-05
1.25153e-05
-1.00256e-05
9.84411e-06
-1.274e-05
1.29295e-05
-1.19194e-05
1.173e-05
-1.30273e-05
1.28354e-05
-1.34437e-05
1.36356e-05
-1.16602e-05
8.60801e-06
-1.55441e-05
1.85964e-05
-3.11326e-06
6.78728e-06
-3.67401e-06
6.09435e-06
-7.21364e-06
1.1193e-06
4.01791e-06
3.14882e-06
-7.16673e-06
-1.18747e-05
1.7905e-05
-6.03029e-06
-1.93533e-05
1.66365e-05
2.71688e-06
-1.13246e-05
4.76021e-06
6.56435e-06
2.49877e-06
-1.0669e-05
8.17022e-06
2.04275e-05
-3.19991e-05
1.15716e-05
3.97445e-05
-3.74011e-05
-2.34339e-06
4.44607e-05
-7.43046e-05
2.98439e-05
0.000101317
-0.000117376
1.6059e-05
0.000127333
-0.000127596
2.63279e-07
0.000120064
-0.000112487
-7.57721e-06
0.000106437
-0.000101422
-5.01512e-06
9.67108e-05
-9.01572e-05
-6.55355e-06
8.18502e-05
-7.41411e-05
-7.70913e-06
7.10427e-05
-7.38997e-05
2.85704e-06
7.80435e-05
-7.53546e-05
-2.68887e-06
5.2429e-05
-1.08571e-05
-4.15719e-05
-1.0556e-05
1.45836e-05
-4.02762e-06
7.39136e-06
-9.12919e-06
-2.21136e-06
3.94919e-06
5.6434e-06
3.13707e-06
1.50924e-05
-2.38728e-05
-1.41732e-05
2.19923e-05
1.32239e-05
-2.10429e-05
-2.50223e-05
2.32157e-05
-4.52292e-06
6.32948e-06
-1.70306e-05
7.7859e-06
-1.55338e-05
2.47785e-05
3.31777e-06
-1.60723e-05
-2.02381e-05
3.29926e-05
3.10296e-05
-4.92007e-05
-2.70526e-05
4.52237e-05
7.69429e-05
-0.000125595
-2.2543e-05
7.11948e-05
0.000167474
-0.000199077
-6.65476e-05
9.81506e-05
0.000224618
-0.000239523
-3.33254e-05
4.82307e-05
0.000254763
-0.000267411
-2.76645e-05
4.03119e-05
0.000271383
-0.000266929
6.1349e-06
-1.05893e-05
0.000256266
-0.000241282
2.83121e-05
-4.32964e-05
0.000228177
-0.000220562
3.64944e-05
-4.41102e-05
0.000216027
-0.000214487
2.76558e-05
-2.91957e-05
0.000209191
-0.000193164
6.23707e-06
-2.22641e-05
0.000168008
-0.000132724
1.53431e-05
-5.06276e-05
7.81359e-05
-2.45763e-05
8.73319e-05
-0.000140891
-1.89365e-05
2.33841e-05
-4.44765e-06
9.45388e-06
-1.42679e-05
-6.70865e-06
1.15227e-05
1.43104e-05
-3.11932e-06
3.38905e-05
-4.50817e-05
-1.43985e-05
2.67969e-05
3.01237e-05
-4.25221e-05
-3.05815e-05
2.78845e-05
-8.50663e-06
1.12036e-05
-2.02958e-05
1.03595e-05
-3.42144e-05
4.41507e-05
4.23652e-07
-1.20737e-05
-4.53613e-05
5.70113e-05
2.53173e-05
-4.36067e-05
-6.4375e-05
8.26645e-05
7.94762e-05
-0.000120095
-0.000118736
0.000159355
0.000147011
-0.000165343
-0.000124903
0.000143235
0.000164566
-0.000162314
-4.93917e-05
4.71402e-05
0.000169822
-0.000170423
-4.45532e-05
4.51547e-05
0.000160585
-0.000147372
2.33913e-05
-3.66036e-05
0.000132853
-0.000118726
5.80442e-05
-7.21716e-05
0.000107292
-9.84426e-05
4.74898e-05
-5.6339e-05
9.13971e-05
-8.72312e-05
2.20991e-05
-2.6265e-05
8.78069e-05
-9.35221e-05
2.05129e-05
-1.47976e-05
9.90815e-05
-9.62956e-05
7.8206e-05
-8.09919e-05
6.8025e-05
-2.58135e-05
0.000196783
-0.000238994
-2.74393e-05
3.03488e-05
-2.90946e-06
9.25324e-06
-1.41051e-05
-1.84229e-05
2.32747e-05
1.02601e-05
1.45963e-06
5.63735e-05
-6.80932e-05
-1.02549e-05
2.6393e-05
5.91822e-05
-7.53203e-05
-3.81427e-05
3.61382e-05
-1.41524e-05
1.61569e-05
-2.52886e-05
1.33342e-05
-5.49129e-05
6.68673e-05
-2.59069e-06
-7.38173e-06
-6.78406e-05
7.7813e-05
1.62974e-05
-2.3048e-05
-9.56792e-05
0.00010243
2.99879e-05
-4.88327e-05
-0.000190661
0.000209506
7.6124e-05
-9.80922e-05
-0.000156192
0.00017816
0.000122382
-0.000150992
-5.92745e-05
8.78848e-05
0.000173877
-0.000181155
-4.90438e-05
5.63218e-05
0.000175601
-0.000158831
5.03696e-05
-6.71396e-05
0.000135731
-0.000113045
9.10833e-05
-0.00011377
9.27489e-05
-7.38844e-05
7.20372e-05
-9.09017e-05
5.61998e-05
-4.0151e-05
3.86741e-05
-5.47228e-05
2.48767e-05
-1.10109e-05
1.89974e-05
-3.28631e-05
4.80394e-06
-2.04075e-05
6.50617e-05
-4.94582e-05
3.08409e-05
-1.69021e-05
0.000264195
-0.000278134
-3.12965e-05
2.9726e-05
1.57047e-06
2.29362e-06
4.09327e-06
-2.228e-05
1.58931e-05
-1.6962e-05
1.23687e-05
7.69196e-05
-7.23263e-05
-1.09789e-05
2.00766e-05
8.74368e-05
-9.65345e-05
-4.00575e-05
4.61506e-05
-1.57948e-05
9.70171e-06
-3.15478e-05
1.59403e-05
-8.04367e-05
9.60441e-05
-4.8853e-06
-3.54743e-06
-8.69828e-05
9.54155e-05
8.49005e-06
-7.921e-06
-0.0001044
0.000103831
1.22026e-06
-2.41221e-07
-0.000216326
0.000215347
2.22301e-05
-6.3056e-05
-0.000211293
0.000252119
0.000116249
-0.000170461
-0.000131058
0.00018527
0.000204648
-0.000215526
-6.60119e-05
7.68893e-05
0.000206668
-0.000181466
8.8272e-05
-0.000113474
0.000148093
-0.000116593
0.00014088
-0.000172379
9.09106e-05
-7.08286e-05
0.000110262
-0.000130344
5.40136e-05
-3.84065e-05
7.12857e-05
-8.68928e-05
2.33627e-05
-9.35105e-06
4.69803e-05
-6.09919e-05
-2.62996e-06
1.05761e-05
4.60963e-05
-5.40424e-05
1.69617e-05
-1.77067e-05
0.00028368
-0.000282935
-2.52799e-05
1.83164e-05
6.96346e-06
-1.535e-05
2.25027e-05
-9.31675e-06
2.16407e-06
-1.9754e-05
1.81204e-05
7.01295e-05
-6.84958e-05
-1.77603e-05
1.60663e-05
9.58213e-05
-9.41273e-05
-2.08485e-05
4.72419e-05
6.86094e-06
-3.32544e-05
-3.42573e-05
1.65262e-05
-0.000113684
0.000131415
-5.11055e-06
-2.15178e-06
-0.000103237
0.000110499
5.19474e-06
-5.05408e-06
-0.000102837
0.000102696
4.9469e-06
-3.18447e-06
-0.000212477
0.000210714
1.42337e-05
-5.58396e-05
-0.00029479
0.000336396
0.000125497
-0.000185995
-0.00024575
0.000306248
0.000212685
-0.000211753
-8.47538e-05
8.38219e-05
0.000196194
-0.000172761
0.000140171
-0.000163605
0.000144302
-0.000114794
0.000205313
-0.000234821
8.64914e-05
-6.41629e-05
0.000151714
-0.000174042
4.81453e-05
-3.50257e-05
0.000101207
-0.000114327
2.28508e-05
-1.23169e-05
7.34994e-05
-8.40333e-05
8.03938e-06
-2.11643e-06
6.21321e-05
-6.80551e-05
1.15601e-05
-1.2756e-05
0.000275609
-0.000274413
-1.07027e-05
2.29569e-06
8.40705e-06
-1.89643e-05
2.41509e-05
2.89676e-06
-8.0833e-06
-2.3969e-05
2.42098e-05
6.76774e-05
-6.79181e-05
-2.41667e-05
2.2588e-05
9.23933e-05
-9.08146e-05
-2.08933e-05
3.10714e-05
5.39869e-05
-6.4165e-05
-2.33084e-05
1.19098e-05
-0.00014623
0.000157628
-2.20847e-06
-3.54371e-06
-0.000117121
0.000122873
6.02309e-06
-1.03924e-05
-0.000104401
0.00010877
2.48229e-05
-3.92107e-05
-0.000216342
0.00023073
5.01316e-05
-7.35878e-05
-0.000369238
0.000392695
0.000128693
-0.000166513
-0.000359389
0.000397209
0.000161998
-0.000142427
-7.07566e-05
5.11856e-05
0.000128232
-0.000118818
0.000177677
-0.000187091
0.000110323
-9.73168e-05
0.000256587
-0.000269593
7.55572e-05
-5.51363e-05
0.000196146
-0.000216567
4.00153e-05
-2.90074e-05
0.000126365
-0.000137372
1.99642e-05
-1.24894e-05
9.29255e-05
-0.0001004
8.31221e-06
-5.46716e-06
7.29162e-05
-7.57613e-05
4.61328e-06
9.4786e-07
0.000277663
-0.000283224
-1.23357e-05
2.62482e-06
9.71086e-06
-1.33234e-05
2.08954e-05
1.70359e-05
-2.46079e-05
-2.65799e-05
2.80537e-05
6.91824e-05
-7.06562e-05
-2.6991e-05
2.51375e-05
8.92313e-05
-8.73778e-05
-2.26171e-05
1.42421e-05
6.49779e-05
-5.66029e-05
-6.4589e-06
9.27401e-07
-0.000166067
0.000171598
2.90263e-06
-7.09454e-06
-0.000127758
0.00013195
9.88361e-06
-1.62731e-05
-0.000114409
0.000120798
3.28461e-05
-5.10072e-05
-0.000247102
0.000265263
7.31306e-05
-9.78457e-05
-0.00041644
0.000441155
0.000119259
-0.000122397
-0.000414776
0.000417914
0.000114885
-0.000106895
-3.65676e-05
2.85774e-05
9.68063e-05
-8.55285e-05
0.000197481
-0.000208759
8.0452e-05
-7.13841e-05
0.000278179
-0.000287247
5.69093e-05
-4.23942e-05
0.000234228
-0.000248743
3.01092e-05
-2.1338e-05
0.000147316
-0.000156087
1.50535e-05
-1.00087e-05
0.000106599
-0.000111644
6.75123e-06
-6.58584e-06
7.60073e-05
-7.61727e-05
1.76442e-06
2.47886e-06
0.000289008
-0.000293251
-5.32899e-06
-3.31259e-06
8.64158e-06
-1.31346e-05
1.90719e-05
4.81396e-06
-1.07513e-05
-2.66381e-05
3.06907e-05
2.04583e-05
-2.45108e-05
-2.7999e-05
2.16756e-05
2.10708e-05
-1.47474e-05
-1.66589e-05
1.44007e-05
1.51675e-05
-1.29093e-05
-1.40795e-05
1.47265e-05
9.48093e-06
-1.01279e-05
-1.58559e-05
1.72251e-05
7.00435e-06
-8.37352e-06
-1.86793e-05
2.0118e-05
5.99902e-06
-7.43775e-06
-2.14879e-05
2.2763e-05
5.39025e-06
-6.66535e-06
-2.39048e-05
2.48602e-05
4.72684e-06
-5.68225e-06
-2.55864e-05
2.60729e-05
3.73049e-06
-4.21698e-06
-2.63462e-05
2.64682e-05
2.51632e-06
-2.63833e-06
-2.65166e-05
2.65413e-05
1.23241e-06
-1.25704e-06
-2.66088e-05
2.67885e-05
-1.95442e-07
1.58e-08
-2.69358e-05
2.70711e-05
-1.71395e-06
1.57859e-06
-2.71738e-05
2.72114e-05
-3.18954e-06
3.15192e-06
-2.71498e-05
2.69929e-05
-4.71575e-06
4.8727e-06
-2.68196e-05
2.6725e-05
-6.31703e-06
6.41165e-06
-2.67565e-05
2.69264e-05
-7.96422e-06
7.79434e-06
-2.72348e-05
2.76651e-05
-9.65904e-06
9.22876e-06
-2.82047e-05
2.88224e-05
-1.15055e-05
1.08878e-05
-2.946e-05
3.00232e-05
-1.382e-05
1.32569e-05
-3.10324e-05
3.42187e-05
-2.14079e-05
1.82217e-05
1.31784e-05
-2.50756e-05
1.18972e-05
-2.27517e-05
3.1636e-05
2.07668e-05
-2.96511e-05
-2.85893e-05
3.45159e-06
2.29456e-05
2.19217e-06
1.70006e-06
4.07471e-06
7.20179e-06
-1.29766e-05
-6.16697e-06
5.58543e-06
1.15137e-05
-1.09321e-05
-5.19567e-06
5.71889e-06
1.11918e-05
-1.1715e-05
-6.49992e-06
7.11712e-06
1.01522e-05
-1.07694e-05
-8.00138e-06
9.59684e-06
9.10337e-06
-1.06988e-05
-1.15521e-05
1.38629e-05
8.25905e-06
-1.05698e-05
-1.65889e-05
1.96545e-05
6.92353e-06
-9.98908e-06
-2.28145e-05
2.57122e-05
4.77217e-06
-7.6699e-06
-2.80585e-05
2.96966e-05
2.48318e-06
-4.12127e-06
-3.0598e-05
3.0872e-05
7.34256e-07
-1.00823e-06
-3.0795e-05
3.01673e-05
-7.61925e-07
1.38963e-06
-2.92087e-05
2.79637e-05
-1.82745e-06
3.07246e-06
-2.68989e-05
2.64307e-05
-2.77085e-06
3.23901e-06
-2.64325e-05
2.67449e-05
-4.60451e-06
4.29205e-06
-2.73103e-05
2.79494e-05
-6.44826e-06
5.80918e-06
-2.84396e-05
2.87802e-05
-7.7909e-06
7.45037e-06
-2.90719e-05
2.94063e-05
-8.82889e-06
8.49448e-06
-2.98969e-05
3.0674e-05
-1.00503e-05
9.27321e-06
-3.18786e-05
3.36672e-05
-1.15297e-05
9.74111e-06
-3.62541e-05
3.97666e-05
-1.30261e-05
9.51361e-06
2.71043e-05
-1.8404e-05
-8.70026e-06
4.01414e-06
-7.19975e-06
1.88483e-05
-1.56627e-05
1.40157e-05
-9.67999e-06
-1.52054e-05
1.08697e-05
7.80446e-06
-7.82981e-06
1.7938e-05
-1.79126e-05
8.00283e-06
-7.7283e-06
4.80422e-06
-5.07875e-06
9.49325e-06
-1.27666e-05
3.02807e-06
2.45306e-07
1.74501e-05
-2.41375e-05
2.35489e-06
4.33257e-06
3.44971e-05
-4.6961e-05
1.71716e-05
-4.70769e-06
5.43833e-05
-5.62459e-05
1.58472e-05
-1.39845e-05
5.42432e-05
-4.93184e-05
1.84478e-05
-2.33726e-05
4.4063e-05
-4.09126e-05
1.65492e-05
-1.96997e-05
3.95236e-05
-3.77921e-05
1.1065e-05
-1.27966e-05
3.33792e-05
-2.42305e-05
6.23159e-06
-1.53803e-05
6.11751e-06
9.38104e-06
1.63295e-06
-1.71315e-05
-1.76984e-05
2.18608e-05
-4.00958e-06
-1.52829e-07
-2.62062e-05
2.95073e-05
-3.87204e-06
5.70939e-07
-2.92544e-05
2.69152e-05
-4.88297e-06
7.22217e-06
-2.48325e-05
2.37031e-05
-5.30084e-06
6.43024e-06
-2.35703e-05
2.46904e-05
-6.44108e-06
5.32096e-06
-2.65963e-05
2.8541e-05
-7.60936e-06
5.6647e-06
-3.02112e-05
3.15115e-05
-8.56856e-06
7.26817e-06
-3.25592e-05
3.36427e-05
-8.38803e-06
7.30447e-06
-3.50495e-05
3.68769e-05
-6.83041e-06
5.00301e-06
1.17794e-05
-8.44222e-06
-3.3372e-06
8.01305e-06
-8.57009e-06
1.6594e-05
-1.60369e-05
4.83316e-06
1.75585e-06
-1.26337e-06
-5.32564e-06
5.10739e-07
-4.12313e-06
1.32265e-05
-9.61409e-06
4.14312e-06
-3.89951e-06
6.45171e-06
-6.69532e-06
2.89783e-06
-1.21757e-06
1.76926e-06
-3.44952e-06
-1.94138e-06
6.46654e-06
-3.64428e-06
-8.80877e-07
-1.15396e-05
1.43883e-05
-3.12875e-06
2.80078e-07
-1.33821e-05
7.06338e-06
6.57606e-06
-2.57315e-07
3.11067e-06
-1.26958e-05
2.19142e-05
-1.23291e-05
1.77933e-05
-1.856e-05
2.38181e-05
-2.30514e-05
1.6134e-05
-1.25642e-05
1.66705e-05
-2.02403e-05
8.36788e-06
-4.8794e-06
1.47789e-05
-1.82674e-05
5.29738e-06
-4.19826e-06
1.13157e-05
-1.24148e-05
1.05909e-06
1.63134e-06
3.31963e-06
-6.01006e-06
3.94184e-06
-1.39571e-05
1.62327e-05
-6.2174e-06
1.48139e-05
7.05689e-06
-2.77939e-06
-1.90914e-05
-1.99205e-05
2.32001e-05
-5.8702e-06
2.5906e-06
-2.49308e-05
2.72803e-05
-6.37246e-06
4.02293e-06
-2.73083e-05
2.63231e-05
-5.28392e-06
6.26912e-06
-2.57897e-05
2.57533e-05
-5.60764e-06
5.64399e-06
-2.63995e-05
2.76192e-05
-5.77344e-06
4.55372e-06
-2.90828e-05
3.06183e-05
-3.50167e-06
1.96618e-06
5.11905e-06
-1.8334e-06
-3.28566e-06
4.82015e-06
-4.64481e-06
1.55907e-05
-1.5766e-05
3.78212e-06
-2.27712e-06
7.43148e-06
-8.93647e-06
2.74478e-06
-2.75154e-06
8.85975e-06
-8.85299e-06
2.4334e-06
-1.87108e-06
7.15579e-06
-7.71811e-06
9.8906e-07
1.77312e-07
5.01348e-06
-6.17986e-06
-1.66446e-06
3.44596e-06
3.29703e-06
-5.07854e-06
-5.41199e-06
7.28797e-06
3.41378e-06
-5.28977e-06
-9.42317e-06
1.28341e-05
3.76473e-06
-7.17561e-06
-1.60436e-05
1.61211e-05
4.48543e-06
-4.563e-06
-1.20144e-05
7.58439e-06
1.72654e-05
-1.28354e-05
-4.18316e-06
2.02128e-06
1.98217e-05
-1.76598e-05
-4.30383e-07
-8.77545e-07
1.90358e-05
-1.77279e-05
1.75486e-06
-1.55056e-06
1.54486e-05
-1.56529e-05
7.94788e-07
7.98207e-08
1.12884e-05
-1.21631e-05
-1.84378e-06
8.43592e-06
4.05507e-06
-1.06472e-05
-1.32521e-05
7.35397e-06
1.67918e-05
-1.08936e-05
-3.31206e-06
2.00758e-06
-1.67677e-05
1.80722e-05
2.81906e-06
-1.48819e-05
1.21464e-05
-8.35291e-08
1.57294e-05
8.43233e-06
-7.34173e-07
-2.34275e-05
-2.06756e-05
2.61627e-05
-5.52316e-06
3.60469e-08
-3.00903e-05
3.20495e-05
-5.0113e-06
3.05216e-06
-3.17179e-05
3.05003e-05
-2.07962e-06
3.29718e-06
-1.37546e-06
4.57941e-06
-3.20395e-06
4.18227e-06
-3.64581e-06
1.62551e-05
-1.67916e-05
2.94539e-06
-2.22191e-06
9.8795e-06
-1.0603e-05
1.90279e-06
-1.44937e-06
9.18589e-06
-9.63931e-06
9.13159e-07
-2.42088e-07
8.37329e-06
-9.04436e-06
-5.75978e-07
1.54726e-06
7.263e-06
-8.23429e-06
-2.6547e-06
3.8762e-06
6.5214e-06
-7.74289e-06
-5.13972e-06
6.38577e-06
6.6854e-06
-7.93145e-06
-7.42157e-06
8.1213e-06
8.49114e-06
-9.19087e-06
-9.38037e-06
1.13739e-05
6.90335e-06
-8.89688e-06
-1.27161e-05
1.27612e-05
1.15762e-05
-1.16213e-05
-1.18773e-05
1.06118e-05
1.53848e-05
-1.41193e-05
-9.3094e-06
8.03339e-06
1.60502e-05
-1.47742e-05
-6.92906e-06
6.27384e-06
1.54893e-05
-1.4834e-05
-6.14048e-06
6.40741e-06
1.29476e-05
-1.32146e-05
-6.80282e-06
7.80347e-06
9.98426e-06
-1.09849e-05
-8.7437e-06
7.27428e-06
1.03029e-05
-8.83346e-06
-9.45645e-06
1.56117e-05
-3.68181e-06
-2.47346e-06
-1.6391e-05
2.49572e-05
-3.44214e-06
-5.12411e-06
-3.16474e-05
2.26438e-05
1.49378e-05
-5.93419e-06
-1.88032e-05
1.48014e-05
-4.62792e-07
4.46463e-06
-5.40269e-06
-7.39393e-06
4.47896e-06
8.31766e-06
-4.92549e-07
1.05788e-05
1.0631e-06
-1.11494e-05
-7.79356e-06
1.09609e-05
-3.1673e-06
4.13916e-06
-3.4764e-06
1.73923e-05
-1.80551e-05
2.59012e-06
-1.89925e-06
1.12633e-05
-1.19541e-05
1.33527e-06
-7.71722e-07
1.0164e-05
-1.07275e-05
1.80843e-07
4.62501e-07
9.70569e-06
-1.0349e-05
-1.16857e-06
1.94261e-06
9.09488e-06
-9.86891e-06
-2.77305e-06
3.63627e-06
8.75219e-06
-9.6154e-06
-4.503e-06
5.34301e-06
8.94319e-06
-9.7832e-06
-6.09413e-06
6.68467e-06
9.77159e-06
-1.03621e-05
-7.29622e-06
8.10784e-06
1.01714e-05
-1.0983e-05
-8.84028e-06
9.17111e-06
1.19786e-05
-1.23094e-05
-9.16987e-06
9.07645e-06
1.3682e-05
-1.35886e-05
-8.99569e-06
8.87062e-06
1.42101e-05
-1.4085e-05
-8.66946e-06
8.48422e-06
1.43302e-05
-1.4145e-05
-8.43627e-06
8.61216e-06
1.33486e-05
-1.35245e-05
-9.05889e-06
9.83147e-06
1.16702e-05
-1.24428e-05
-1.09312e-05
1.22972e-05
9.76659e-06
-1.11327e-05
-1.43085e-05
1.70937e-05
6.91966e-06
-9.70483e-06
-1.93063e-05
2.23137e-05
6.71993e-06
-9.72727e-06
-2.59125e-05
2.82538e-05
7.34344e-06
-9.68475e-06
-3.29369e-05
3.81511e-05
2.14211e-06
-7.35636e-06
-4.49474e-05
5.5841e-05
-1.03456e-05
-5.47986e-07
-5.44001e-05
4.49574e-05
-1.25216e-06
1.06948e-05
-1.39782e-05
1.66902e-05
-2.71199e-06
3.87346e-06
-3.18794e-06
1.87452e-05
-1.94307e-05
2.19281e-06
-1.42959e-06
1.26913e-05
-1.34545e-05
8.20654e-07
-2.50901e-07
1.1305e-05
-1.18747e-05
-3.16481e-07
9.0387e-07
1.09677e-05
-1.15551e-05
-1.51396e-06
2.14898e-06
1.05688e-05
-1.12038e-05
-2.805e-06
3.47131e-06
1.03693e-05
-1.10356e-05
-4.1324e-06
4.77177e-06
1.05074e-05
-1.11468e-05
-5.37534e-06
5.93324e-06
1.09617e-05
-1.15196e-05
-6.45589e-06
6.95449e-06
1.15776e-05
-1.20762e-05
-7.37986e-06
7.66634e-06
1.25946e-05
-1.28811e-05
-7.82188e-06
7.91565e-06
1.36194e-05
-1.37132e-05
-7.99929e-06
8.08915e-06
1.41147e-05
-1.42046e-05
-8.20362e-06
8.38235e-06
1.41973e-05
-1.4376e-05
-8.66965e-06
9.10499e-06
1.38458e-05
-1.42811e-05
-9.72717e-06
1.05776e-05
1.32655e-05
-1.41159e-05
-1.17006e-05
1.31419e-05
1.26314e-05
-1.40728e-05
-1.49636e-05
1.72158e-05
1.2268e-05
-1.45202e-05
-1.98425e-05
2.29219e-05
1.26235e-05
-1.57029e-05
-2.66865e-05
3.15615e-05
1.36159e-05
-1.84909e-05
-3.80654e-05
4.57083e-05
1.44449e-05
-2.20879e-05
-5.33992e-05
6.10478e-05
8.28174e-06
-1.59303e-05
-6.65123e-05
7.10126e-05
-6.16752e-06
1.66721e-06
-1.88917e-05
2.03282e-05
-1.43647e-06
2.84985e-06
-2.29839e-06
2.00743e-05
-2.06258e-05
1.44778e-06
-7.69416e-07
1.42022e-05
-1.48805e-05
2.35171e-07
2.61027e-07
1.24143e-05
-1.29105e-05
-7.52761e-07
1.25409e-06
1.21028e-05
-1.26041e-05
-1.76651e-06
2.28986e-06
1.17807e-05
-1.2304e-05
-2.82146e-06
3.35563e-06
1.16301e-05
-1.21642e-05
-3.8848e-06
4.40042e-06
1.1719e-05
-1.22346e-05
-4.89448e-06
5.36078e-06
1.20294e-05
-1.24957e-05
-5.79553e-06
6.19496e-06
1.25167e-05
-1.29161e-05
-6.54794e-06
6.83987e-06
1.31731e-05
-1.3465e-05
-7.07053e-06
7.25987e-06
1.38594e-05
-1.40488e-05
-7.43417e-06
7.61678e-06
1.43441e-05
-1.45267e-05
-7.83185e-06
8.10665e-06
1.46219e-05
-1.48967e-05
-8.46656e-06
8.93261e-06
1.47605e-05
-1.52265e-05
-9.52569e-06
1.02703e-05
1.49378e-05
-1.56823e-05
-1.11954e-05
1.23343e-05
1.53864e-05
-1.65253e-05
-1.37213e-05
1.53973e-05
1.65109e-05
-1.81869e-05
-1.74426e-05
2.00073e-05
1.8672e-05
-2.12367e-05
-2.32336e-05
2.74875e-05
2.34646e-05
-2.77184e-05
-3.31386e-05
3.8893e-05
2.95129e-05
-3.52673e-05
-4.36068e-05
4.85167e-05
2.24428e-05
-2.73527e-05
-5.51074e-05
6.33868e-05
4.06232e-06
-1.23417e-05
-2.07979e-05
2.04392e-05
3.58684e-07
9.73747e-07
-7.77565e-07
2.10216e-05
-2.12178e-05
3.60054e-07
4.6786e-08
1.54361e-05
-1.5843e-05
-4.09933e-07
7.7874e-07
1.33456e-05
-1.37144e-05
-1.16545e-06
1.56917e-06
1.30566e-05
-1.34603e-05
-1.98651e-06
2.41432e-06
1.27776e-05
-1.32054e-05
-2.84894e-06
3.28568e-06
1.26464e-05
-1.30832e-05
-3.7192e-06
4.14395e-06
1.27016e-05
-1.31263e-05
-4.5547e-06
4.94678e-06
1.29229e-05
-1.3315e-05
-5.31595e-06
5.65841e-06
1.32844e-05
-1.36269e-05
-5.97066e-06
6.25044e-06
1.37527e-05
-1.40325e-05
-6.49983e-06
6.7267e-06
1.42649e-05
-1.44917e-05
-6.94283e-06
7.16082e-06
1.47361e-05
-1.49541e-05
-7.39358e-06
7.65506e-06
1.51737e-05
-1.54352e-05
-7.95935e-06
8.31959e-06
1.56474e-05
-1.60076e-05
-8.74762e-06
9.25388e-06
1.6317e-05
-1.68232e-05
-9.84668e-06
1.05323e-05
1.74497e-05
-1.81353e-05
-1.13137e-05
1.21874e-05
1.94834e-05
-2.03571e-05
-1.31515e-05
1.42383e-05
2.31346e-05
-2.42214e-05
-1.54331e-05
1.64811e-05
3.05275e-05
-3.15755e-05
-1.74882e-05
1.79444e-05
3.83861e-05
-3.88423e-05
-1.73903e-05
1.87755e-05
3.0627e-05
-3.20121e-05
-2.34916e-05
3.13539e-05
2.12124e-05
-2.90747e-05
-1.97728e-05
1.91565e-05
6.1628e-07
-5.33518e-07
5.46488e-07
2.11997e-05
-2.12127e-05
-6.04019e-07
7.57914e-07
1.61144e-05
-1.62683e-05
-9.67405e-07
1.22461e-06
1.40202e-05
-1.42774e-05
-1.51799e-06
1.83726e-06
1.38187e-05
-1.4138e-05
-2.17487e-06
2.52551e-06
1.3592e-05
-1.39427e-05
-2.88432e-06
3.24667e-06
1.34801e-05
-1.38424e-05
-3.60789e-06
3.96365e-06
1.35143e-05
-1.387e-05
-4.3098e-06
4.64287e-06
1.36758e-05
-1.40089e-05
-4.95957e-06
5.25743e-06
1.39461e-05
-1.4244e-05
-5.53452e-06
5.7902e-06
1.43013e-05
-1.4557e-05
-6.02557e-06
6.2437e-06
1.47178e-05
-1.4936e-05
-6.44936e-06
6.64805e-06
1.51667e-05
-1.53654e-05
-6.8454e-06
7.04688e-06
1.56699e-05
-1.58714e-05
-7.25702e-06
7.47869e-06
1.62998e-05
-1.65214e-05
-7.71192e-06
7.95297e-06
1.71948e-05
-1.74359e-05
-8.19265e-06
8.41408e-06
1.85795e-05
-1.8801e-05
-8.58903e-06
8.6732e-06
2.0811e-05
-2.08952e-05
-8.5911e-06
8.22903e-06
2.45084e-05
-2.41464e-05
-7.43355e-06
5.6936e-06
3.09907e-05
-2.92507e-05
-2.70086e-06
-2.50153e-07
3.72132e-05
-3.42622e-05
3.68253e-06
-9.15159e-06
2.97686e-05
-2.42995e-05
1.45684e-05
-1.78657e-05
3.2618e-05
-2.93206e-05
-1.86229e-05
1.81271e-05
4.95766e-07
-1.08495e-06
1.14474e-06
2.12219e-05
-2.12817e-05
-1.12336e-06
1.18401e-06
1.63557e-05
-1.64163e-05
-1.33071e-06
1.53344e-06
1.45008e-05
-1.47035e-05
-1.77221e-06
2.03626e-06
1.44258e-05
-1.46898e-05
-2.31857e-06
2.61399e-06
1.42629e-05
-1.45583e-05
-2.91772e-06
3.22549e-06
1.41751e-05
-1.44829e-05
-3.53312e-06
3.83706e-06
1.41979e-05
-1.45018e-05
-4.1339e-06
4.42084e-06
1.43174e-05
-1.46043e-05
-4.69525e-06
4.95504e-06
1.4522e-05
-1.47818e-05
-5.19856e-06
5.42478e-06
1.47982e-05
-1.50244e-05
-5.63343e-06
5.82488e-06
1.51419e-05
-1.53334e-05
-5.99994e-06
6.15958e-06
1.55456e-05
-1.57053e-05
-6.3043e-06
6.43381e-06
1.60367e-05
-1.61662e-05
-6.54624e-06
6.63754e-06
1.66748e-05
-1.67661e-05
-6.70046e-06