/*--------------------------------*- C++ -*----------------------------------*\
| =========                 |                                                 |
| \\      /  F ield         | OpenFOAM: The Open Source CFD Toolbox           |
|  \\    /   O peration     | Version:  v1912                                 |
|   \\  /    A nd           | Website:  www.openfoam.com                      |
|    \\/     M anipulation  |                                                 |
\*---------------------------------------------------------------------------*/
FoamFile
{
    version     2.0;
    format      ascii;
    class       volVectorField;
    location    "0.5";
    object      U;
}
// * * * * * * * * * * * * * * * * * * * * * * * * * * * * * * * * * * * * * //

dimensions      [0 1 -1 0 0 0 0];


internalField   nonuniform List<vector> 
9072
(
(-0.0285074 0.0243235 0)
(-0.0556509 -0.000840814 0)
(-0.00241746 -0.00903105 0)
(0.084402 -0.00979664 0)
(0.158684 -0.00679204 0)
(0.204217 -0.00339516 0)
(0.224826 -0.00106206 0)
(0.231069 1.24558e-05 0)
(0.232017 0.000194558 0)
(0.232804 1.69667e-05 0)
(0.234843 -0.000123385 0)
(0.237244 -4.95939e-05 0)
(0.238134 0.000337735 0)
(0.2345 0.00140762 0)
(0.221124 0.00380131 0)
(0.188796 0.00838597 0)
(0.121033 0.0154096 0)
(0.0024326 0.0162536 0)
(-0.0943715 -0.000705369 0)
(-0.170778 0.000519137 0)
(-0.00761901 -0.0475074 0)
(-0.190111 0.0569166 0)
(-0.246053 -0.0226449 0)
(-0.0269594 0.0605224 0)
(-0.0544316 -0.00860189 0)
(0.0024735 -0.0470954 0)
(0.0883994 -0.0501581 0)
(0.160098 -0.0353576 0)
(0.20427 -0.0190344 0)
(0.225931 -0.00792745 0)
(0.235029 -0.00252382 0)
(0.23927 -0.00104872 0)
(0.242863 -0.00137962 0)
(0.247101 -0.00186417 0)
(0.251365 -0.00159571 0)
(0.254193 -0.000261591 0)
(0.254003 0.00216297 0)
(0.249583 0.00611122 0)
(0.241282 0.0138027 0)
(0.234323 0.0317104 0)
(0.226179 0.0653252 0)
(0.140129 0.0799781 0)
(-0.0345182 0.00749045 0)
(-0.146901 -0.0246691 0)
(-0.345172 0.166576 0)
(-0.243284 -0.168502 0)
(-0.0244903 0.0937798 0)
(-0.0504028 -0.0174904 0)
(0.00749572 -0.0842152 0)
(0.0870032 -0.0877457 0)
(0.151845 -0.0613451 0)
(0.191594 -0.033222 0)
(0.212247 -0.0147176 0)
(0.223299 -0.00594281 0)
(0.231063 -0.00355453 0)
(0.238399 -0.00397307 0)
(0.2457 -0.00450658 0)
(0.252017 -0.00372128 0)
(0.25604 -0.0011828 0)
(0.256606 0.00316532 0)
(0.252842 0.00967469 0)
(0.244293 0.0197152 0)
(0.2318 0.0360593 0)
(0.223773 0.0632305 0)
(0.243829 0.106642 0)
(0.207691 0.0994524 0)
(-0.0378203 0.0520777 0)
(-0.112517 0.191042 0)
(-0.0841735 -0.223647 0)
(-0.0222076 0.124295 0)
(-0.0451874 -0.0280741 0)
(0.00918993 -0.118296 0)
(0.0785773 -0.121098 0)
(0.136611 -0.0845332 0)
(0.172887 -0.0463268 0)
(0.194055 -0.0221505 0)
(0.208791 -0.0111649 0)
(0.221702 -0.00823217 0)
(0.23399 -0.00848825 0)
(0.245046 -0.00851169 0)
(0.253688 -0.00664942 0)
(0.258955 -0.00254946 0)
(0.260301 0.00369387 0)
(0.257538 0.0122614 0)
(0.250997 0.024148 0)
(0.242163 0.0412485 0)
(0.234231 0.0647645 0)
(0.233712 0.0927356 0)
(0.259354 0.124058 0)
(0.191975 0.145088 0)
(0.135121 0.160195 0)
(0.0999977 -0.187161 0)
(-0.018463 0.150543 0)
(-0.0386716 -0.0389038 0)
(-0.00958139 -0.143777 0)
(0.055134 -0.153156 0)
(0.119231 -0.106064 0)
(0.153939 -0.0590102 0)
(0.176616 -0.0309774 0)
(0.195999 -0.0188181 0)
(0.214507 -0.0154976 0)
(0.231708 -0.01511 0)
(0.246179 -0.0138894 0)
(0.256731 -0.0103114 0)
(0.262918 -0.00429309 0)
(0.264838 0.00388915 0)
(0.262893 0.0142478 0)
(0.25792 0.027445 0)
(0.251546 0.0447103 0)
(0.246627 0.0667072 0)
(0.245626 0.0913007 0)
(0.249935 0.11649 0)
(0.2792 0.168287 0)
(0.285045 0.159326 0)
(0.206228 -0.106075 0)
(-0.011296 0.168878 0)
(-0.0296871 -0.0423531 0)
(-0.0407695 -0.15603 0)
(0.0202931 -0.193116 0)
(0.103038 -0.130736 0)
(0.140817 -0.0715055 0)
(0.164512 -0.0413737 0)
(0.188058 -0.0289554 0)
(0.211333 -0.0251378 0)
(0.232334 -0.023491 0)
(0.249171 -0.0203007 0)
(0.260845 -0.0144741 0)
(0.267527 -0.0063051 0)
(0.269911 0.00380989 0)
(0.268723 0.0157459 0)
(0.265021 0.0298898 0)
(0.260425 0.0471077 0)
(0.257192 0.0676714 0)
(0.257803 0.0905751 0)
(0.261438 0.113777 0)
(0.276482 0.144711 0)
(0.334956 0.15624 0)
(0.251387 -0.00058955 0)
(0.0017208 0.172789 0)
(-0.0115659 -0.0353442 0)
(-0.0153208 -0.164124 0)
(0.0324053 -0.232184 0)
(0.0962527 -0.158954 0)
(0.133744 -0.0845685 0)
(0.159616 -0.0529824 0)
(0.186629 -0.0410253 0)
(0.213314 -0.0365271 0)
(0.236866 -0.0330741 0)
(0.255195 -0.0272867 0)
(0.267321 -0.0187524 0)
(0.273765 -0.00830906 0)
(0.275743 0.00355926 0)
(0.27464 0.0167777 0)
(0.271958 0.0316183 0)
(0.268899 0.0487532 0)
(0.266878 0.0681535 0)
(0.268066 0.0890782 0)
(0.273719 0.111093 0)
(0.281582 0.131881 0)
(0.306697 0.144948 0)
(0.245964 0.10286 0)
(0.0208651 0.149168 0)
(0.0387564 -0.0346355 0)
(0.102566 -0.187312 0)
(0.141129 -0.246526 0)
(0.118519 -0.173361 0)
(0.132614 -0.0970716 0)
(0.157238 -0.0663906 0)
(0.186129 -0.0548317 0)
(0.214045 -0.0491306 0)
(0.238414 -0.043453 0)
(0.257687 -0.0347383 0)
(0.271307 -0.0233098 0)
(0.280173 -0.0104887 0)
(0.284462 0.0036011 0)
(0.283587 0.0181036 0)
(0.279829 0.0329976 0)
(0.276743 0.0497305 0)
(0.275603 0.068246 0)
(0.277498 0.0874325 0)
(0.283351 0.107183 0)
(0.293263 0.127612 0)
(0.296392 0.145479 0)
(0.250073 0.184431 0)
(-0.046004 0.047724 0)
(-0.172162 0.00673807 0)
(-0.0162936 -0.0312546 0)
(0.350795 -0.025383 0)
(0.422809 0.0154002 0)
(0.185804 0.0291457 0)
(-0.148132 0.0348349 0)
(-0.600847 0.0526702 0)
(-0.906688 -0.0667859 0)
(-1.11534 0.118483 0)
(-2.51352 0.0239083 0)
(-2.98618 -0.0951042 0)
(-2.63879 -0.0853935 0)
(-2.36344 -0.0745061 0)
(-2.14809 -0.0488359 0)
(-1.77321 -0.0228528 0)
(-1.62278 0.0759689 0)
(-1.87 0.093794 0)
(-0.693241 -0.148818 0)
(-0.0441215 0.12142 0)
(-0.213508 0.0292877 0)
(-0.0375265 -0.184737 0)
(0.424899 -0.16386 0)
(0.570388 0.0530536 0)
(0.296024 0.195146 0)
(-0.214802 0.257204 0)
(-0.91468 0.347532 0)
(-2.08998 0.46375 0)
(-4.25676 0.767766 0)
(-5.41306 0.385285 0)
(-5.98431 0.418129 0)
(-6.18978 -0.108022 0)
(-5.67416 -0.442359 0)
(-5.0831 -0.462373 0)
(-4.92091 -0.355736 0)
(-4.67189 -0.101885 0)
(-3.5617 -0.327087 0)
(-0.986198 -1.17097 0)
(-0.0400478 0.204536 0)
(-0.296419 0.084558 0)
(-0.244843 -0.365789 0)
(0.508213 -0.341053 0)
(0.689864 0.0965785 0)
(0.359419 0.38015 0)
(-0.137875 0.497558 0)
(-0.764489 0.717488 0)
(-2.34842 1.35038 0)
(-3.58287 1.32771 0)
(-3.66655 0.473233 0)
(-3.98475 0.450786 0)
(-3.50496 -0.261484 0)
(-2.85231 -0.61768 0)
(-2.3238 -0.492882 0)
(-2.02635 -0.192117 0)
(-2.03632 -0.171781 0)
(-2.68587 -0.784489 0)
(-0.880352 -2.14499 0)
(-0.0197694 0.28092 0)
(-0.31705 0.203373 0)
(-0.0325949 -0.668417 0)
(0.352111 -0.662401 0)
(0.902566 0.154714 0)
(0.442522 0.58942 0)
(-0.0565872 0.707487 0)
(-0.464875 0.968089 0)
(-0.830578 1.96266 0)
(-2.00271 1.59601 0)
(-3.08039 0.692942 0)
(-4.14374 0.516304 0)
(-3.8481 -0.555261 0)
(-2.81988 -0.99111 0)
(-1.89361 -0.791431 0)
(-1.08906 -0.449647 0)
(-0.408809 -0.239087 0)
(-0.210379 -0.475384 0)
(-0.642372 -2.63969 0)
(0.0241902 0.301827 0)
(-0.0891479 0.194169 0)
(0.29452 -0.694401 0)
(0.270469 -0.90729 0)
(1.11302 0.15185 0)
(0.527062 0.853346 0)
(0.00629122 0.885885 0)
(-0.206511 1.01201 0)
(0.0709465 2.10688 0)
(-0.907495 2.236 0)
(-3.3565 1.52872 0)
(-4.91529 0.700133 0)
(-4.46497 -0.978125 0)
(-2.99082 -1.51141 0)
(-1.82384 -1.16542 0)
(-1.05166 -0.771284 0)
(-0.388012 -0.526926 0)
(0.236985 -0.46566 0)
(-0.853504 -2.766 0)
(0.0842428 0.215615 0)
(0.563538 0.0520743 0)
(0.413817 -0.671611 0)
(0.405221 -0.908576 0)
(0.752852 -0.0969692 0)
(0.565294 1.18881 0)
(0.0211272 1.03805 0)
(-0.108032 0.995249 0)
(-0.109242 2.04128 0)
(-0.635177 3.07849 0)
(-3.79926 2.66868 0)
(-4.9699 0.864862 0)
(-4.18109 -1.49326 0)
(-2.96924 -2.16006 0)
(-1.69113 -1.58126 0)
(-0.945266 -1.05029 0)
(-0.422134 -0.770161 0)
(-0.171367 -0.650072 0)
(-0.565053 -2.68082 0)
(0.0872531 0.0291795 0)
(0.574987 -0.0980632 0)
(0.55149 -0.653997 0)
(0.54293 -0.888592 0)
(0.496672 -0.65691 0)
(0.357838 1.47888 0)
(-0.025361 1.16616 0)
(-0.147769 1.03134 0)
(-0.755403 2.17251 0)
(-1.21048 3.70692 0)
(-3.73355 3.69826 0)
(-3.47022 0.500799 0)
(-2.75254 -1.79805 0)
(-2.4879 -2.57148 0)
(-1.49039 -2.01059 0)
(-0.780476 -1.28322 0)
(-0.391927 -0.94173 0)
(-0.237543 -0.730452 0)
(-0.202048 -2.71641 0)
(0.168971 -0.105928 0)
(0.372423 -0.173664 0)
(0.648123 -0.678955 0)
(0.594075 -0.858707 0)
(0.430371 -0.599803 0)
(0.0175664 1.64647 0)
(-0.121212 1.26226 0)
(-0.2604 1.13882 0)
(-0.941326 2.48132 0)
(-1.93065 4.15928 0)
(-2.92685 4.05739 0)
(-2.45902 0.278785 0)
(-1.98376 -1.97405 0)
(-1.84488 -2.73828 0)
(-1.15486 -2.35511 0)
(-0.579635 -1.4777 0)
(-0.309294 -1.06341 0)
(-0.22923 -0.736936 0)
(-0.133304 -2.83551 0)
(0.0442351 0.0156665 0)
(0.164183 -0.0703002 0)
(0.3256 -0.245855 0)
(0.270795 -0.201012 0)
(0.158293 -0.152132 0)
(0.152974 -0.104285 0)
(0.177193 -0.0805143 0)
(0.208319 -0.070161 0)
(0.237786 -0.0632291 0)
(0.262164 -0.0552347 0)
(0.277748 -0.0431879 0)
(0.28377 -0.0294713 0)
(0.284839 -0.0150099 0)
(0.286452 0.00217555 0)
(0.290045 0.0189294 0)
(0.292293 0.0344374 0)
(0.290881 0.0514999 0)
(0.287162 0.068587 0)
(0.287832 0.0851205 0)
(0.29443 0.101933 0)
(0.306128 0.120831 0)
(0.32228 0.147653 0)
(0.366252 0.223675 0)
(0.0584623 -0.183271 0)
(0.296859 -0.284246 0)
(0.164669 -0.159819 0)
(0.0279207 -0.0290721 0)
(0.063738 -0.121556 0)
(0.057356 -0.129766 0)
(0.0734001 -0.124843 0)
(0.0933011 -0.115425 0)
(0.135591 -0.106533 0)
(0.193361 -0.0913617 0)
(0.261087 -0.0659116 0)
(0.31229 -0.0343518 0)
(0.331901 -0.0024601 0)
(0.327981 0.0203089 0)
(0.30719 0.0269074 0)
(0.284713 0.0247238 0)
(0.284926 0.0442518 0)
(0.296637 0.0697082 0)
(0.30768 0.085156 0)
(0.313662 0.093105 0)
(0.324442 0.103282 0)
(0.350371 0.115189 0)
(0.403704 0.119205 0)
(-0.0577964 -0.239423 0)
(-0.083131 -0.0993321 0)
(-0.172741 0.156038 0)
(-0.074656 -0.209933 0)
(-0.0687019 -0.033434 0)
(-0.112191 0.000433227 0)
(-0.209324 -0.00530188 0)
(-0.454435 -0.201141 0)
(-0.607592 -0.195286 0)
(-0.551867 -0.248682 0)
(-0.453828 -0.221337 0)
(-0.422404 -0.150873 0)
(-0.336963 -0.128399 0)
(0.0425706 -0.0389028 0)
(0.217518 0.0425965 0)
(0.306354 0.0344059 0)
(0.306746 0.0595409 0)
(0.255289 0.0612043 0)
(0.257517 0.0604436 0)
(0.296196 0.072787 0)
(0.33223 0.0882453 0)
(0.35486 0.0848554 0)
(0.384708 0.0615635 0)
(-0.0385095 -0.109583 0)
(-0.0925895 -0.189385 0)
(-0.0101452 -0.0665601 0)
(-0.0476973 -0.119557 0)
(-0.0437776 -0.0714421 0)
(-0.0237524 -0.038691 0)
(0.0409854 -0.0119762 0)
(0.143744 0.0188355 0)
(0.130302 0.00843846 0)
(-0.0921037 -0.196172 0)
(-0.208527 -0.271344 0)
(-0.153294 -0.203143 0)
(-0.0631779 -0.139864 0)
(-0.0574242 -0.0477445 0)
(0.0124691 -0.0462505 0)
(-0.114942 -0.279999 0)
(-0.00767916 -0.017317 0)
(0.24432 0.0467256 0)
(0.285858 0.0796942 0)
(0.289803 0.0679845 0)
(0.273888 0.0513736 0)
(0.289035 0.0506268 0)
(0.32038 0.0300143 0)
(-0.0300095 -0.0374511 0)
(-0.0557121 -0.168354 0)
(-0.0314359 -0.0931473 0)
(-0.0326578 -0.0951258 0)
(-0.0235566 -0.0797935 0)
(-0.00484434 -0.0602298 0)
(0.0264708 -0.0484976 0)
(0.0676048 -0.0501348 0)
(0.113054 -0.0672818 0)
(0.18204 -0.0356888 0)
(0.107376 -0.149386 0)
(0.0306902 -0.201164 0)
(-0.00342079 -0.192919 0)
(-0.020044 -0.166285 0)
(-0.00183678 -0.148665 0)
(0.039831 -0.174774 0)
(0.102115 -0.0583701 0)
(-0.0338331 0.276936 0)
(-0.0947112 -0.22011 0)
(0.0104623 -0.0518972 0)
(0.262921 0.0517894 0)
(0.3386 0.0710868 0)
(0.336335 0.0329705 0)
(-0.0309588 0.0322542 0)
(-0.0463105 -0.178117 0)
(-0.0285957 -0.110698 0)
(-0.0185664 -0.101436 0)
(-0.00647374 -0.0938989 0)
(0.0110131 -0.083622 0)
(0.0346382 -0.0772503 0)
(0.0615346 -0.0795056 0)
(0.0832202 -0.0963815 0)
(0.110265 -0.0887389 0)
(0.141955 -0.12362 0)
(0.120643 -0.155811 0)
(0.0930295 -0.164045 0)
(0.0693604 -0.164288 0)
(0.0663985 -0.145783 0)
(0.0774861 -0.123874 0)
(0.0890479 -0.0850893 0)
(0.138634 -0.0176343 0)
(0.207437 -0.0967755 0)
(0.315555 -0.00685493 0)
(0.138841 0.0634023 0)
(-0.106789 -0.0780268 0)
(0.0777308 -0.0661644 0)
(-0.0318418 0.100959 0)
(-0.0461534 -0.191133 0)
(-0.024954 -0.125134 0)
(-0.0115677 -0.112709 0)
(0.00136857 -0.108215 0)
(0.0165278 -0.1024 0)
(0.0342048 -0.0993223 0)
(0.0526597 -0.101511 0)
(0.0686792 -0.108955 0)
(0.0822846 -0.115775 0)
(0.098288 -0.1317 0)
(0.098054 -0.146558 0)
(0.0961313 -0.151923 0)
(0.0919233 -0.152762 0)
(0.0907053 -0.144796 0)
(0.10052 -0.130341 0)
(0.123928 -0.111842 0)
(0.167157 -0.092484 0)
(0.222782 -0.100687 0)
(0.290335 -0.0800563 0)
(0.376614 -0.0471064 0)
(0.527171 0.0364391 0)
(0.561186 0.179172 0)
(-0.0295369 0.165482 0)
(-0.0436647 -0.206293 0)
(-0.0198798 -0.141196 0)
(-0.00585443 -0.125185 0)
(0.00648952 -0.121622 0)
(0.0195552 -0.117601 0)
(0.033573 -0.115691 0)
(0.0477163 -0.117125 0)
(0.060705 -0.121655 0)
(0.0721129 -0.128065 0)
(0.0812681 -0.137606 0)
(0.0847061 -0.147303 0)
(0.0863465 -0.152614 0)
(0.0888309 -0.153857 0)
(0.0949418 -0.151513 0)
(0.108346 -0.147776 0)
(0.132529 -0.144419 0)
(0.171599 -0.14527 0)
(0.228351 -0.153584 0)
(0.309851 -0.17278 0)
(0.447365 -0.195859 0)
(0.614812 -0.134538 0)
(0.740785 0.0434253 0)
(-0.0175411 0.21388 0)
(-0.032451 -0.220332 0)
(-0.0119707 -0.15729 0)
(6.14184e-05 -0.136826 0)
(0.0107048 -0.133432 0)
(0.0216947 -0.130077 0)
(0.0330884 -0.128542 0)
(0.0444404 -0.129438 0)
(0.0550779 -0.132534 0)
(0.0644765 -0.137417 0)
(0.0720779 -0.143816 0)
(0.0770786 -0.150478 0)
(0.0807731 -0.155644 0)
(0.0853921 -0.159201 0)
(0.0931094 -0.161886 0)
(0.105873 -0.165522 0)
(0.125805 -0.172839 0)
(0.155705 -0.188452 0)
(0.200016 -0.217502 0)
(0.271555 -0.280517 0)
(0.38522 -0.358495 0)
(0.492745 -0.27598 0)
(0.630527 -0.0830311 0)
(0.00493315 0.225102 0)
(-0.0117009 -0.228045 0)
(-0.00165007 -0.169054 0)
(0.0062566 -0.146126 0)
(0.0145938 -0.143174 0)
(0.0235541 -0.140295 0)
(0.0328833 -0.138942 0)
(0.0421942 -0.139487 0)
(0.0510318 -0.141697 0)
(0.0589865 -0.145306 0)
(0.065711 -0.149989 0)
(0.0710852 -0.155143 0)
(0.0757208 -0.160175 0)
(0.0807212 -0.165191 0)
(0.0872655 -0.170965 0)
(0.0964927 -0.179192 0)
(0.109308 -0.19273 0)
(0.126288 -0.216273 0)
(0.147528 -0.258025 0)
(0.176234 -0.34018 0)
(0.186344 -0.42298 0)
(0.189175 -0.345203 0)
(0.278738 -0.284367 0)
(0.00522723 0.209691 0)
(0.00691165 -0.228566 0)
(0.00708663 -0.174812 0)
(0.011618 -0.152721 0)
(0.0179247 -0.150897 0)
(0.0251708 -0.148632 0)
(0.0328757 -0.147499 0)
(0.0406362 -0.147839 0)
(0.0480805 -0.149454 0)
(0.0548965 -0.152166 0)
(0.0608605 -0.15577 0)
(0.0659258 -0.160016 0)
(0.0703476 -0.164761 0)
(0.0745934 -0.170251 0)
(0.0791232 -0.177251 0)
(0.0841689 -0.187163 0)
(0.0893937 -0.202214 0)
(0.0933217 -0.225848 0)
(0.0920684 -0.263723 0)
(0.0768395 -0.326376 0)
(0.0040345 -0.385502 0)
(-0.0624868 -0.29176 0)
(-0.188492 -0.346871 0)
(0.00250832 0.198146 0)
(0.0138393 -0.229094 0)
(0.0120323 -0.176784 0)
(0.0152581 -0.157553 0)
(0.0203741 -0.157107 0)
(0.0264291 -0.155538 0)
(0.0329504 -0.154669 0)
(0.0395593 -0.154901 0)
(0.0459402 -0.156093 0)
(0.0518416 -0.158147 0)
(0.0570797 -0.160961 0)
(0.0615684 -0.16445 0)
(0.0653349 -0.168642 0)
(0.0684522 -0.173807 0)
(0.0708825 -0.180537 0)
(0.0722625 -0.189779 0)
(0.0715776 -0.202839 0)
(0.0665897 -0.221316 0)
(0.0527909 -0.246699 0)
(0.0211301 -0.27851 0)
(-0.0581656 -0.312245 0)
(-0.0789074 -0.189754 0)
(-0.175118 -0.173772 0)
(0.00144291 0.188245 0)
(0.0150416 -0.231615 0)
(0.0140695 -0.178043 0)
(0.0172143 -0.161733 0)
(0.0218935 -0.162451 0)
(0.0272767 -0.161491 0)
(0.0330274 -0.160863 0)
(0.0388375 -0.161015 0)
(0.0444452 -0.16187 0)
(0.049636 -0.163383 0)
(0.0542336 -0.165512 0)
(0.0581027 -0.168239 0)
(0.0611331 -0.171625 0)
(0.0631768 -0.175873 0)
(0.0639328 -0.181344 0)
(0.0627866 -0.18853 0)
(0.0585993 -0.197937 0)
(0.0494107 -0.209805 0)
(0.032074 -0.223448 0)
(0.00209242 -0.235789 0)
(-0.0460622 -0.239323 0)
(-0.095342 -0.20836 0)
(-0.0660757 -0.145688 0)
(0.000575451 0.18043 0)
(0.0139341 -0.235621 0)
(0.0143215 -0.179861 0)
(0.0179379 -0.165962 0)
(0.0226482 -0.167458 0)
(0.0277633 -0.166912 0)
(0.0330949 -0.166438 0)
(0.038417 -0.166489 0)
(0.043518 -0.167028 0)
(0.0482099 -0.168038 0)
(0.0523188 -0.169501 0)
(0.0556786 -0.171412 0)
(0.0581086 -0.173812 0)
(0.0593642 -0.176799 0)
(0.0590582 -0.180521 0)
(0.0565651 -0.185119 0)
(0.0509258 -0.190588 0)
(0.0407761 -0.196514 0)
(0.0244069 -0.201599 0)
(0.000281059 -0.202983 0)
(-0.0315238 -0.195962 0)
(-0.0645111 -0.17425 0)
(-0.0974429 -0.148435 0)
(-1.76587e-05 0.1746 0)
(0.0119653 -0.240368 0)
(0.0136534 -0.182578 0)
(0.0179363 -0.170566 0)
(0.0229172 -0.172467 0)
(0.0280356 -0.172126 0)
(0.0332198 -0.171695 0)
(0.0383141 -0.171596 0)
(0.0431485 -0.171801 0)
(0.0475577 -0.172305 0)
(0.0513749 -0.173092 0)
(0.0544253 -0.174146 0)
(0.056504 -0.175464 0)
(0.0573437 -0.177051 0)
(0.0565731 -0.178895 0)
(0.0536736 -0.180916 0)
(0.0479578 -0.182858 0)
(0.0386028 -0.184104 0)
(0.024823 -0.183438 0)
(0.00631403 -0.178832 0)
(-0.0159437 -0.167692 0)
(-0.0392897 -0.147908 0)
(-0.0611272 -0.120272 0)
(-0.000415895 0.170474 0)
(0.00976189 -0.245435 0)
(0.0126716 -0.186241 0)
(0.0176733 -0.175671 0)
(0.0230281 -0.177672 0)
(0.0283099 -0.177355 0)
(0.0335314 -0.176864 0)
(0.0385902 -0.176559 0)
(0.0433527 -0.176404 0)
(0.0476769 -0.176392 0)
(0.0514098 -0.176497 0)
(0.0543826 -0.176682 0)
(0.0563944 -0.176901 0)
(0.0571954 -0.177088 0)
(0.0564715 -0.177135 0)
(0.0538372 -0.176853 0)
(0.0488512 -0.175898 0)
(0.0410785 -0.173674 0)
(0.0302464 -0.169227 0)
(0.0165203 -0.161232 0)
(0.000829508 -0.148191 0)
(-0.0150632 -0.128934 0)
(-0.0293346 -0.103025 0)
(-0.00058111 0.167523 0)
(0.00772074 -0.250645 0)
(0.0118306 -0.19084 0)
(0.0175158 -0.181301 0)
(0.0232562 -0.183164 0)
(0.0287739 -0.18273 0)
(0.0341399 -0.182096 0)
(0.0392911 -0.18154 0)
(0.0441268 -0.18101 0)
(0.0485298 -0.180486 0)
(0.0523659 -0.179928 0)
(0.0554811 -0.179274 0)
(0.0576943 -0.178442 0)
(0.0587909 -0.17732 0)
(0.0585233 -0.175754 0)
(0.056619 -0.173518 0)
(0.0528123 -0.170277 0)
(0.0469071 -0.165535 0)
(0.0388893 -0.158612 0)
(0.0290873 -0.148679 0)
(0.0183228 -0.134875 0)
(0.00793007 -0.116518 0)
(-0.000457833 -0.0932014 0)
(-0.000514455 0.165074 0)
(0.00622199 -0.25601 0)
(0.0114724 -0.19631 0)
(0.0177072 -0.187393 0)
(0.0237666 -0.188952 0)
(0.029525 -0.188312 0)
(0.0350873 -0.187482 0)
(0.0404167 -0.186655 0)
(0.0454378 -0.185757 0)
(0.050056 -0.18475 0)
(0.0541551 -0.183574 0)
(0.0576005 -0.182146 0)
(0.060238 -0.180359 0)
(0.061894 -0.178076 0)
(0.062381 -0.175124 0)
(0.0615103 -0.17128 0)
(0.0591241 -0.166256 0)
(0.0551483 -0.159679 0)
(0.0496735 -0.151103 0)
(0.0430522 -0.140052 0)
(0.0359852 -0.1261 0)
(0.0295668 -0.108951 0)
(0.0252222 -0.0884542 0)
(-0.000253116 0.162422 0)
(0.00557787 -0.26177 0)
(0.0118376 -0.202498 0)
(0.0183775 -0.193795 0)
(0.0246336 -0.194981 0)
(0.0306021 -0.194112 0)
(0.0363846 -0.193077 0)
(0.0419564 -0.191992 0)
(0.0472578 -0.19076 0)
(0.0522082 -0.189319 0)
(0.0567064 -0.187593 0)
(0.060637 -0.185482 0)
(0.0638732 -0.182864 0)
(0.0662792 -0.179591 0)
(0.0677152 -0.175487 0)
(0.0680484 -0.170344 0)
(0.067179 -0.163929 0)
(0.0650789 -0.155981 0)
(0.0618489 -0.146236 0)
(0.0577872 -0.134482 0)
(0.0534566 -0.120621 0)
(0.0497499 -0.104718 0)
(0.0479264 -0.0869534 0)
(0.000192775 0.158987 0)
(0.006001 -0.268276 0)
(0.0130126 -0.209092 0)
(0.0195195 -0.200291 0)
(0.0258516 -0.201181 0)
(0.0320038 -0.200125 0)
(0.0380272 -0.198923 0)
(0.0438941 -0.197625 0)
(0.0495511 -0.196115 0)
(0.0549274 -0.194309 0)
(0.0599359 -0.192118 0)
(0.0644795 -0.18943 0)
(0.0684554 -0.186118 0)
(0.0717562 -0.18203 0)
(0.0742735 -0.176988 0)
(0.0759043 -0.170804 0)
(0.0765681 -0.163286 0)
(0.0762312 -0.154254 0)
(0.074944 -0.143579 0)
(0.0728927 -0.131244 0)
(0.0704643 -0.117415 0)
(0.0683405 -0.10251 0)
(0.0676318 -0.0871619 0)
(0.00063284 0.154312 0)
(0.00756283 -0.275847 0)
(0.0146987 -0.215638 0)
(0.0209324 -0.206705 0)
(0.0273027 -0.207509 0)
(0.0336431 -0.206361 0)
(0.0399351 -0.205056 0)
(0.0461387 -0.203611 0)
(0.0522029 -0.201893 0)
(0.0580698 -0.199809 0)
(0.0636704 -0.197254 0)
(0.0689292 -0.194115 0)
(0.0737643 -0.190256 0)
(0.0780875 -0.185521 0)
(0.0818062 -0.179735 0)
(0.0848245 -0.172714 0)
(0.0870504 -0.164288 0)
(0.0884053 -0.154319 0)
(0.08884 -0.142755 0)
(0.0883665 -0.129705 0)
(0.0871162 -0.115541 0)
(0.0854563 -0.101025 0)
(0.084225 -0.0873944 0)
(0.000901504 0.148171 0)
(0.00977105 -0.284313 0)
(0.0162641 -0.221743 0)
(0.0222946 -0.213044 0)
(0.0287844 -0.213986 0)
(0.0353484 -0.212844 0)
(0.0419414 -0.21151 0)
(0.0485153 -0.209987 0)
(0.0550251 -0.208143 0)
(0.0614301 -0.205879 0)
(0.0676859 -0.203083 0)
(0.0737418 -0.199636 0)
(0.0795374 -0.195393 0)
(0.0849995 -0.190191 0)
(0.0900452 -0.183843 0)
(0.0945754 -0.176161 0)
(0.0984706 -0.166965 0)
(0.101584 -0.156113 0)
(0.103731 -0.143556 0)
(0.10469 -0.129432 0)
(0.104216 -0.114207 0)
(0.102126 -0.0989054 0)
(0.0985638 -0.0854229 0)
(0.000987134 0.140747 0)
(0.0117092 -0.292948 0)
(0.0172049 -0.227364 0)
(0.0233713 -0.219522 0)
(0.0301244 -0.220682 0)
(0.0369613 -0.219611 0)
(0.0438847 -0.218317 0)
(0.0508551 -0.216788 0)
(0.0578427 -0.214905 0)
(0.0648284 -0.212571 0)
(0.071793 -0.209672 0)
(0.0787121 -0.206078 0)
(0.0855488 -0.201633 0)
(0.0922511 -0.196157 0)
(0.0987508 -0.18945 0)
(0.104951 -0.181295 0)
(0.110712 -0.171474 0)
(0.115826 -0.159785 0)
(0.119977 -0.146095 0)
(0.12269 -0.130432 0)
(0.123255 -0.113141 0)
(0.120669 -0.0952056 0)
(0.11369 -0.0788362 0)
(0.000929374 0.132285 0)
(0.0128102 -0.300996 0)
(0.0174664 -0.23281 0)
(0.0241119 -0.226392 0)
(0.0312294 -0.227668 0)
(0.0383717 -0.226694 0)
(0.0456349 -0.225494 0)
(0.0530043 -0.224032 0)
(0.0604758 -0.222205 0)
(0.0680553 -0.219922 0)
(0.0757489 -0.217066 0)
(0.0835586 -0.213497 0)
(0.0914771 -0.209047 0)
(0.0994821 -0.203522 0)
(0.107534 -0.196694 0)
(0.115557 -0.188308 0)
(0.123419 -0.17808 0)
(0.130897 -0.165704 0)
(0.137603 -0.150875 0)
(0.142881 -0.133348 0)
(0.145623 -0.113048 0)
(0.143963 -0.0903451 0)
(0.134821 -0.0666847 0)
(0.00102249 0.122828 0)
(0.0130989 -0.308002 0)
(0.0172981 -0.238491 0)
(0.0245759 -0.233772 0)
(0.0320507 -0.23497 0)
(0.0394817 -0.234091 0)
(0.0470524 -0.233026 0)
(0.0547798 -0.231701 0)
(0.0626916 -0.230029 0)
(0.070822 -0.22792 0)
(0.0792035 -0.225257 0)
(0.0878678 -0.221895 0)
(0.0968418 -0.217655 0)
(0.106142 -0.212329 0)
(0.115771 -0.205665 0)
(0.125703 -0.197366 0)
(0.135857 -0.187073 0)
(0.14606 -0.174351 0)
(0.155962 -0.158671 0)
(0.164904 -0.139398 0)
(0.171675 -0.115779 0)
(0.174048 -0.0869753 0)
(0.167814 -0.0521455 0)
(0.00144019 0.112192 0)
(0.0128609 -0.313811 0)
(0.0170129 -0.244688 0)
(0.0248641 -0.241599 0)
(0.0325891 -0.242538 0)
(0.0402343 -0.241753 0)
(0.0480326 -0.240852 0)
(0.0560339 -0.239729 0)
(0.0642981 -0.238306 0)
(0.0728873 -0.236495 0)
(0.0818622 -0.234177 0)
(0.091285 -0.231205 0)
(0.10122 -0.2274 0)
(0.111729 -0.222543 0)
(0.122874 -0.216369 0)
(0.134701 -0.208549 0)
(0.147223 -0.198664 0)
(0.160387 -0.18616 0)
(0.173999 -0.170291 0)
(0.187631 -0.150044 0)
(0.200451 -0.123989 0)
(0.210861 -0.0899661 0)
(0.21578 -0.0442924 0)
(0.00210412 0.100044 0)
(0.0124367 -0.318518 0)
(0.0168873 -0.251479 0)
(0.0250898 -0.249682 0)
(0.032899 -0.250261 0)
(0.0406364 -0.249577 0)
(0.0485464 -0.24887 0)
(0.0567085 -0.248013 0)
(0.0652099 -0.246931 0)
(0.074137 -0.245534 0)
(0.0835757 -0.243707 0)
(0.0936185 -0.241306 0)
(0.104369 -0.238158 0)
(0.11594 -0.23405 0)
(0.128463 -0.228717 0)
(0.142071 -0.221822 0)
(0.156888 -0.212911 0)
(0.173023 -0.201359 0)
(0.190546 -0.186298 0)
(0.209473 -0.166513 0)
(0.229743 -0.140216 0)
(0.251176 -0.104573 0)
(0.273582 -0.0546942 0)
(0.00301184 0.0858461 0)
(0.012289 -0.322405 0)
(0.017113 -0.258715 0)
(0.025342 -0.257771 0)
(0.0330403 -0.257989 0)
(0.0407171 -0.257431 0)
(0.048602 -0.256956 0)
(0.0567968 -0.25643 0)
(0.0654073 -0.255775 0)
(0.0745381 -0.254902 0)
(0.0842976 -0.253701 0)
(0.0948079 -0.252042 0)
(0.106212 -0.249767 0)
(0.118677 -0.246685 0)
(0.132396 -0.242548 0)
(0.147586 -0.237029 0)
(0.164488 -0.229682 0)
(0.183402 -0.219901 0)
(0.204711 -0.206851 0)
(0.228945 -0.189371 0)
(0.256868 -0.165769 0)
(0.289701 -0.133458 0)
(0.329681 -0.088398 0)
(0.00431671 0.0686732 0)
(0.0129078 -0.32563 0)
(0.0177676 -0.266044 0)
(0.0256692 -0.2656 0)
(0.0330578 -0.265546 0)
(0.0405152 -0.265164 0)
(0.0482415 -0.264978 0)
(0.056348 -0.264853 0)
(0.0649494 -0.26471 0)
(0.0741639 -0.264465 0)
(0.0841201 -0.264019 0)
(0.0949678 -0.263263 0)
(0.106886 -0.262069 0)
(0.120082 -0.260272 0)
(0.134802 -0.257656 0)
(0.151336 -0.253932 0)
(0.170044 -0.248724 0)
(0.191413 -0.241534 0)
(0.216101 -0.231699 0)
(0.245026 -0.218312 0)
(0.279526 -0.200121 0)
(0.321663 -0.175406 0)
(0.374762 -0.141917 0)
(0.00612192 0.047433 0)
(0.0145064 -0.328001 0)
(0.0187985 -0.27303 0)
(0.0260749 -0.272926 0)
(0.0329881 -0.272765 0)
(0.0400952 -0.272642 0)
(0.0475578 -0.27282 0)
(0.0554832 -0.273175 0)
(0.0639866 -0.273633 0)
(0.0731951 -0.274116 0)
(0.0832526 -0.274548 0)
(0.0943296 -0.274848 0)
(0.106628 -0.274916 0)
(0.120384 -0.274628 0)
(0.135883 -0.273812 0)
(0.153483 -0.272255 0)
(0.173643 -0.269694 0)
(0.196981 -0.265801 0)
(0.224308 -0.260143 0)
(0.256744 -0.25217 0)
(0.295882 -0.241217 0)
(0.344031 -0.226542 0)
(0.404552 -0.207485 0)
(0.00836638 0.0213119 0)
(0.0167791 -0.329091 0)
(0.0200066 -0.279318 0)
(0.0264879 -0.279579 0)
(0.0328254 -0.279525 0)
(0.0394991 -0.279768 0)
(0.0466289 -0.280402 0)
(0.054308 -0.281322 0)
(0.0626455 -0.282464 0)
(0.0717711 -0.283772 0)
(0.0818361 -0.28519 0)
(0.0930207 -0.286669 0)
(0.105538 -0.288145 0)
(0.119643 -0.289536 0)
(0.135651 -0.290741 0)
(0.153963 -0.29164 0)
(0.175089 -0.292102 0)
(0.199691 -0.291973 0)
(0.228628 -0.29107 0)
(0.263057 -0.289221 0)
(0.304563 -0.286317 0)
(0.355299 -0.282423 0)
(0.418156 -0.278012 0)
(0.0108024 -0.00974347 0)
(0.019011 -0.328515 0)
(0.0210942 -0.284751 0)
(0.0267588 -0.285491 0)
(0.0324995 -0.285765 0)
(0.0387076 -0.28649 0)
(0.0454664 -0.287671 0)
(0.0528507 -0.289233 0)
(0.06096 -0.291135 0)
(0.0699196 -0.293342 0)
(0.0798792 -0.295827 0)
(0.0910189 -0.29857 0)
(0.103555 -0.301548 0)
(0.117746 -0.304732 0)
(0.133919 -0.308093 0)
(0.152477 -0.311608 0)
(0.173925 -0.315271 0)
(0.19891 -0.319092 0)
(0.228256 -0.323126 0)
(0.263036 -0.327527 0)
(0.304657 -0.332627 0)
(0.354912 -0.339055 0)
(0.416035 -0.347965 0)
(0.0129613 -0.044891 0)
(0.0204548 -0.326216 0)
(0.0217602 -0.289387 0)
(0.0267109 -0.290702 0)
(0.0319026 -0.291487 0)
(0.0376521 -0.292789 0)
(0.044018 -0.29459 0)
(0.0510591 -0.296854 0)
(0.0588625 -0.299565 0)
(0.0675432 -0.302715 0)
(0.077242 -0.306306 0)
(0.0881308 -0.310348 0)
(0.100417 -0.314861 0)
(0.11435 -0.319867 0)
(0.130239 -0.325406 0)
(0.148464 -0.331542 0)
(0.169493 -0.338379 0)
(0.193915 -0.346075 0)
(0.222467 -0.35488 0)
(0.256067 -0.365198 0)
(0.295862 -0.377662 0)
(0.343222 -0.393242 0)
(0.399709 -0.413391 0)
(0.0143463 -0.0824342 0)
(0.0206211 -0.322644 0)
(0.0217435 -0.293432 0)
(0.026148 -0.295325 0)
(0.0308595 -0.296728 0)
(0.0361558 -0.298657 0)
(0.0420892 -0.301115 0)
(0.0487063 -0.304105 0)
(0.0560823 -0.307636 0)
(0.0643203 -0.311729 0)
(0.0735488 -0.316414 0)
(0.0839264 -0.321733 0)
(0.0956445 -0.327742 0)
(0.108932 -0.334513 0)
(0.12407 -0.342145 0)
(0.141401 -0.350779 0)
(0.161336 -0.36061 0)
(0.184386 -0.371912 0)
(0.211159 -0.385081 0)
(0.242383 -0.400683 0)
(0.278913 -0.419524 0)
(0.321699 -0.442729 0)
(0.371721 -0.471829 0)
(0.0147378 -0.120239 0)
(0.019403 -0.318593 0)
(0.020891 -0.297102 0)
(0.0248875 -0.299473 0)
(0.0291557 -0.301508 0)
(0.0339734 -0.30406 0)
(0.0394039 -0.307168 0)
(0.045489 -0.310866 0)
(0.0522964 -0.315191 0)
(0.0599192 -0.320188 0)
(0.068474 -0.325913 0)
(0.0781041 -0.33244 0)
(0.0889811 -0.339857 0)
(0.101308 -0.348277 0)
(0.115332 -0.357849 0)
(0.131342 -0.368773 0)
(0.149679 -0.381313 0)
(0.170749 -0.395823 0)
(0.195014 -0.412787 0)
(0.222994 -0.432856 0)
(0.255265 -0.456907 0)
(0.292404 -0.486092 0)
(0.334894 -0.521889 0)
(0.0143804 -0.156478 0)
(0.0171505 -0.31485 0)
(0.0192593 -0.300498 0)
(0.0229075 -0.303206 0)
(0.0267317 -0.305814 0)
(0.0310331 -0.308943 0)
(0.0358937 -0.312659 0)
(0.041357 -0.31702 0)
(0.0474866 -0.322086 0)
(0.0543668 -0.327925 0)
(0.0621006 -0.334615 0)
(0.0708135 -0.342254 0)
(0.0806535 -0.350958 0)
(0.0917916 -0.360871 0)
(0.10443 -0.372181 0)
(0.118797 -0.385124 0)
(0.135149 -0.400006 0)
(0.153776 -0.417227 0)
(0.174987 -0.437307 0)
(0.199105 -0.460931 0)
(0.22646 -0.488979 0)
(0.257345 -0.52255 0)
(0.291906 -0.562903 0)
(0.0135761 -0.189961 0)
(0.0144198 -0.311947 0)
(0.0170693 -0.303589 0)
(0.0203687 -0.30653 0)
(0.0237263 -0.309618 0)
(0.0274802 -0.313254 0)
(0.031725 -0.317518 0)
(0.0365055 -0.322481 0)
(0.0418807 -0.32822 0)
(0.0479239 -0.334819 0)
(0.0547229 -0.342376 0)
(0.0623818 -0.351006 0)
(0.071021 -0.360846 0)
(0.0807749 -0.372062 0)
(0.0917959 -0.384862 0)
(0.104246 -0.399502 0)
(0.118293 -0.416301 0)
(0.134108 -0.435671 0)
(0.151847 -0.458134 0)
(0.171642 -0.48436 0)
(0.1936 -0.515212 0)
(0.217825 -0.551748 0)
(0.244466 -0.595119 0)
(0.0124883 -0.22005 0)
(0.011642 -0.310099 0)
(0.0145392 -0.306317 0)
(0.0174435 -0.309439 0)
(0.0202905 -0.312914 0)
(0.0234612 -0.316982 0)
(0.027046 -0.32172 0)
(0.0310859 -0.32721 0)
(0.0356317 -0.333537 0)
(0.0407435 -0.340797 0)
(0.0464911 -0.349102 0)
(0.0529547 -0.358578 0)
(0.0602243 -0.369375 0)
(0.0683958 -0.381671 0)
(0.0775707 -0.395678 0)
(0.087846 -0.411652 0)
(0.0993067 -0.429905 0)
(0.112016 -0.450827 0)
(0.125988 -0.474903 0)
(0.141176 -0.502755 0)
(0.157482 -0.535221 0)
(0.174811 -0.573439 0)
(0.193288 -0.618921 0)
(0.0112055 -0.24645 0)
(0.00897249 -0.309046 0)
(0.0117775 -0.308486 0)
(0.014186 -0.311781 0)
(0.0164531 -0.315565 0)
(0.0189838 -0.319985 0)
(0.021846 -0.325115 0)
(0.0250714 -0.331039 0)
(0.028699 -0.337848 0)
(0.0327736 -0.345648 0)
(0.0373461 -0.354557 0)
(0.0424744 -0.364709 0)
(0.0482209 -0.376261 0)
(0.0546485 -0.389391 0)
(0.06182 -0.40431 0)
(0.0697865 -0.42126 0)
(0.0785788 -0.440528 0)
(0.0881875 -0.462458 0)
(0.0985268 -0.487463 0)
(0.109401 -0.516068 0)
(0.120464 -0.549019 0)
(0.131169 -0.58743 0)
(0.140812 -0.633197 0)
(0.00944788 -0.269174 0)
(0.00644046 -0.308616 0)
(0.00883054 -0.31023 0)