/*--------------------------------*- C++ -*----------------------------------*\
| =========                 |                                                 |
| \\      /  F ield         | OpenFOAM: The Open Source CFD Toolbox           |
|  \\    /   O peration     | Version:  v1912                                 |
|   \\  /    A nd           | Website:  www.openfoam.com                      |
|    \\/     M anipulation  |                                                 |
\*---------------------------------------------------------------------------*/
FoamFile
{
    version     2.0;
    format      ascii;
    class       surfaceScalarField;
    location    "0.35";
    object      alphaPhi0.water;
}
// * * * * * * * * * * * * * * * * * * * * * * * * * * * * * * * * * * * * * //

dimensions      [0 3 -1 0 0 0 0];
oriented        oriented;


internalField   nonuniform List<scalar> 
17936
(
-7.96413e-07
1.6254e-06
-8.28989e-07
4.15017e-07
9.41928e-07
-1.35695e-06
-2.78406e-06
4.71232e-06
-1.92827e-06
-6.4684e-06
7.94229e-06
-1.47388e-06
-9.13053e-06
1.00873e-05
-9.56815e-07
-1.08868e-05
1.15987e-05
-7.11915e-07
-1.22763e-05
1.29526e-05
-6.76357e-07
-1.36432e-05
1.43501e-05
-7.06868e-07
-1.50669e-05
1.57832e-05
-7.16221e-07
-1.64863e-05
1.7164e-05
-6.77706e-07
-1.78048e-05
1.83982e-05
-5.9336e-07
-1.89347e-05
1.94055e-05
-4.7073e-07
-1.98015e-05
2.01138e-05
-3.12254e-07
-2.0332e-05
2.04413e-05
-1.09318e-07
-2.04148e-05
2.02068e-05
2.08056e-07
-1.97614e-05
1.9001e-05
7.60402e-07
-1.78237e-05
1.6081e-05
1.74267e-06
-1.35701e-05
1.00771e-05
3.493e-06
-5.56374e-06
3.52652e-07
5.21109e-06
4.37981e-06
-6.04528e-06
2.49232e-06
4.9247e-06
-6.56031e-07
-4.43335e-06
3.02881e-06
-1.33886e-05
1.03601e-05
1.80195e-05
-1.12668e-05
-6.75333e-06
-2.43034e-06
3.21547e-06
-7.85127e-07
3.67997e-07
1.02361e-06
2.73743e-06
-4.12903e-06
-2.88556e-06
4.81498e-06
3.87414e-06
-5.80356e-06
-6.56244e-06
8.02963e-06
2.96775e-06
-4.43494e-06
-9.22135e-06
1.01951e-05
1.94296e-06
-2.91671e-06
-1.10236e-05
1.17725e-05
1.45627e-06
-2.20518e-06
-1.24905e-05
1.32072e-05
1.38168e-06
-2.09842e-06
-1.39361e-05
1.46786e-05
1.43918e-06
-2.18166e-06
-1.54284e-05
1.61754e-05
1.45684e-06
-2.20382e-06
-1.69079e-05
1.76143e-05
1.38082e-06
-2.08727e-06
-1.8284e-05
1.89071e-05
1.2144e-06
-1.83746e-06
-1.94747e-05
1.99785e-05
9.72361e-07
-1.47609e-06
-2.04099e-05
2.07607e-05
6.59806e-07
-1.0106e-06
-2.10221e-05
2.11848e-05
2.68203e-07
-4.30906e-07
-2.1237e-05
2.11689e-05
-2.27577e-07
2.95672e-07
-2.09698e-05
2.06366e-05
-9.23548e-07
1.2567e-06
-2.01791e-05
1.96331e-05
-2.14177e-06
2.68775e-06
-1.90783e-05
1.86078e-05
-4.8219e-06
5.29241e-06
-1.81083e-05
1.70104e-05
-9.36307e-06
1.04609e-05
-1.43018e-05
9.17918e-06
-8.45726e-06
1.35799e-05
-1.96883e-06
-5.51144e-06
2.71329e-06
4.62722e-06
1.11421e-05
-1.33416e-05
-1.70399e-05
1.96496e-05
1.30626e-05
-9.69752e-06
1.38499e-05
-1.7354e-05
-3.97969e-06
4.71736e-06
-7.3767e-07
2.91152e-07
1.13348e-06
5.5362e-06
-6.96083e-06
-2.98983e-06
4.86575e-06
7.71043e-06
-9.58635e-06
-6.53247e-06
7.91864e-06
5.86612e-06
-7.25229e-06
-9.05009e-06
9.99415e-06
3.87623e-06
-4.8203e-06
-1.08231e-05
1.15957e-05
2.96372e-06
-3.73628e-06
-1.23513e-05
1.31112e-05
2.83396e-06
-3.59388e-06
-1.38825e-05
1.46626e-05
2.94081e-06
-3.7209e-06
-1.54436e-05
1.62153e-05
2.96185e-06
-3.73357e-06
-1.6967e-05
1.76885e-05
2.80038e-06
-3.52189e-06
-1.83706e-05
1.90046e-05
2.46523e-06
-3.09926e-06
-1.95829e-05
2.00976e-05
1.98444e-06
-2.49919e-06
-2.05411e-05
2.09055e-05
1.3671e-06
-1.73144e-06
-2.11822e-05
2.13627e-05
6.01032e-07
-7.81477e-07
-2.14372e-05
2.13955e-05
-3.531e-07
3.94745e-07
-2.12277e-05
2.09238e-05
-1.59037e-06
1.89424e-06
-2.04766e-05
1.98841e-05
-3.32871e-06
3.92126e-06
-1.91574e-05
1.83437e-05
-6.0125e-06
6.82612e-06
-1.75854e-05
1.71859e-05
-1.05369e-05
1.09365e-05
-1.71997e-05
1.65617e-05
-1.611e-05
1.6748e-05
-1.3152e-05
6.01231e-06
-1.30537e-05
2.01933e-05
-7.13379e-07
-1.45921e-07
-2.01853e-05
2.07712e-05
9.78995e-07
-2.04456e-06
1.85608e-05
-1.86601e-05
-5.42215e-06
6.08782e-06
-6.65673e-07
1.72786e-07
1.28253e-06
8.40221e-06
-9.85752e-06
-3.11202e-06
4.9008e-06
1.14227e-05
-1.32115e-05
-6.45112e-06
7.7297e-06
8.58674e-06
-9.86533e-06
-8.789e-06
9.70589e-06
5.7496e-06
-6.6665e-06
-1.05483e-05
1.13633e-05
4.5277e-06
-5.34271e-06
-1.21771e-05
1.29992e-05
4.38305e-06
-5.20524e-06
-1.3829e-05
1.46595e-05
4.52517e-06
-5.35564e-06
-1.54814e-05
1.62851e-05
4.52084e-06
-5.32463e-06
-1.70619e-05
1.78036e-05
4.25308e-06
-4.99476e-06
-1.8503e-05
1.91534e-05
3.74089e-06
-4.39125e-06
-1.97482e-05
2.02807e-05
3.02205e-06
-3.55454e-06
-2.07438e-05
2.11299e-05
2.10574e-06
-2.49189e-06
-2.14313e-05
2.16398e-05
9.7487e-07
-1.18341e-06
-2.17471e-05
2.17447e-05
-4.17914e-07
4.20233e-07
-2.16254e-05
2.13832e-05
-2.16791e-06
2.41009e-06
-2.10161e-05
2.05283e-05
-4.45785e-06
4.94565e-06
-1.99334e-05
1.92551e-05
-7.57605e-06
8.2544e-06
-1.85183e-05
1.77371e-05
-1.167e-05
1.24512e-05
-1.7024e-05
1.66353e-05
-1.68908e-05
1.72796e-05
-1.65365e-05
1.5388e-05
-2.41635e-05
2.53119e-05
-1.35334e-05
1.0991e-05
-2.25346e-05
2.70529e-05
-8.77066e-06
5.3403e-06
1.75747e-05
-1.38372e-05
-6.70794e-06
7.27767e-06
-5.69734e-07
9.29659e-09
1.45263e-06
1.1322e-05
-1.27839e-05
-3.22677e-06
4.89935e-06
1.49454e-05
-1.6618e-05
-6.31274e-06
7.47702e-06
1.10864e-05
-1.22507e-05
-8.4705e-06
9.37499e-06
7.57477e-06
-8.47926e-06
-1.02489e-05
1.11234e-05
6.18565e-06
-7.06019e-06
-1.2009e-05
1.29032e-05
6.06291e-06
-6.95714e-06
-1.37976e-05
1.46818e-05
6.21313e-06
-7.09732e-06
-1.55464e-05
1.63836e-05
6.14526e-06
-6.98246e-06
-1.7187e-05
1.79513e-05
5.74755e-06
-6.51188e-06
-1.86716e-05
1.93428e-05
5.05145e-06
-5.72262e-06
-1.99596e-05
2.05159e-05
4.09815e-06
-4.65443e-06
-2.1005e-05
2.142e-05
2.8916e-06
-3.30655e-06
-2.17532e-05
2.19972e-05
1.40886e-06
-1.65287e-06
-2.21445e-05
2.21881e-05
-4.00179e-07
3.56561e-07
-2.21224e-05
2.19438e-05
-2.62036e-06
2.79897e-06
-2.16521e-05
2.12521e-05
-5.388e-06
5.78803e-06
-2.07549e-05
2.01785e-05
-8.87766e-06
9.45401e-06
-1.95475e-05
1.88846e-05
-1.31694e-05
1.38323e-05
-1.81836e-05
1.74556e-05
-1.79408e-05
1.86688e-05
-1.71182e-05
1.77789e-05
-2.49289e-05
2.42682e-05
-1.91112e-05
1.92441e-05
-2.77899e-05
2.7657e-05
-1.63631e-05
9.42641e-06
8.01727e-06
-1.08064e-06
-7.7901e-06
8.23753e-06
-4.47429e-07
-1.52715e-07
1.62796e-06
1.42587e-05
-1.57339e-05
-3.32306e-06
4.85998e-06
1.82245e-05
-1.97614e-05
-6.13228e-06
7.19337e-06
1.33611e-05
-1.44222e-05
-8.14124e-06
9.05516e-06
9.38564e-06
-1.02996e-05
-9.97836e-06
1.09237e-05
7.96927e-06
-8.91466e-06
-1.1886e-05
1.28518e-05
7.88787e-06
-8.8537e-06
-1.38072e-05
1.47407e-05
8.00711e-06
-8.94061e-06
-1.56442e-05
1.65127e-05
7.83571e-06
-8.7042e-06
-1.73428e-05
1.81317e-05
7.28828e-06
-8.07724e-06
-1.88767e-05
1.95737e-05
6.40607e-06
-7.10313e-06
-2.02185e-05
2.08051e-05
5.22507e-06
-5.81171e-06
-2.13272e-05
2.17778e-05
3.73848e-06
-4.18909e-06
-2.21496e-05
2.24354e-05
1.91704e-06
-2.20282e-06
-2.26282e-05
2.2722e-05
-2.88317e-07
1.94577e-07
-2.2712e-05
2.25956e-05
-2.94626e-06
3.06264e-06
-2.23732e-05
2.2049e-05
-6.14886e-06
6.47311e-06
-2.16314e-05
2.11337e-05
-9.9887e-06
1.04864e-05
-2.05723e-05
1.99663e-05
-1.44619e-05
1.50679e-05
-1.93408e-05
1.87082e-05
-1.93472e-05
1.99797e-05
-1.80656e-05
1.77855e-05
-2.40216e-05
2.43017e-05
-1.84529e-05
1.88889e-05
-2.70509e-05
2.66149e-05
-1.65807e-05
9.8865e-06
-6.0154e-06
1.27097e-05
-8.61211e-06
8.90606e-06
-2.9395e-07
-3.52805e-07
1.80743e-06
1.7202e-05
-1.86566e-05
-3.40109e-06
4.7953e-06
2.12271e-05
-2.26213e-05
-5.93758e-06
6.91895e-06
1.544e-05
-1.64213e-05
-7.84771e-06
8.79252e-06
1.12265e-05
-1.21713e-05
-9.77732e-06
1.07962e-05
9.89706e-06
-1.0916e-05
-1.18302e-05
1.28585e-05
9.85235e-06
-1.08806e-05
-1.38648e-05
1.48386e-05
9.89554e-06
-1.08694e-05
-1.57748e-05
1.66716e-05
9.58721e-06
-1.0484e-05
-1.75285e-05
1.83448e-05
8.8795e-06
-9.69582e-06
-1.91189e-05
1.98478e-05
7.81533e-06
-8.54419e-06
-2.05271e-05
2.11512e-05
6.41616e-06
-7.04019e-06
-2.17133e-05
2.22066e-05
4.66011e-06
-5.15333e-06
-2.26235e-05
2.29571e-05
2.51169e-06
-2.84526e-06
-2.32005e-05
2.33479e-05
-7.45168e-08
-7.29656e-08
-2.3395e-05
2.33392e-05
-3.14859e-06
3.20436e-06
-2.31808e-05
2.29227e-05
-6.7632e-06
7.02123e-06
-2.25713e-05
2.21358e-05
-1.09512e-05
1.13868e-05
-2.16271e-05
2.10569e-05
-1.56543e-05
1.62245e-05
-2.04344e-05
1.97781e-05
-2.06099e-05
2.12661e-05
-1.90775e-05
1.82435e-05
-2.49438e-05
2.57778e-05
-1.74192e-05
1.64445e-05
-2.68211e-05
2.77958e-05
-1.40079e-05
8.56141e-06
-1.87584e-05
2.42049e-05
-9.1127e-06
9.22808e-06
-1.15386e-07
-5.7929e-07
1.99774e-06
2.00934e-05
-2.15118e-05
-3.47544e-06
4.72613e-06
2.3944e-05
-2.51947e-05
-5.75626e-06
6.68576e-06
1.73735e-05
-1.8303e-05
-7.62096e-06
8.61209e-06
1.31379e-05
-1.41291e-05
-9.66162e-06
1.07468e-05
1.19696e-05
-1.30548e-05
-1.18389e-05
1.29138e-05
1.19345e-05
-1.30095e-05
-1.39563e-05
1.49594e-05
1.18591e-05
-1.28621e-05
-1.59213e-05
1.68434e-05
1.13938e-05
-1.23159e-05
-1.77273e-05
1.85736e-05
1.05268e-05
-1.1373e-05
-1.93811e-05
2.01468e-05
9.29094e-06
-1.00567e-05
-2.08664e-05
2.15339e-05
7.68532e-06
-8.35279e-06
-2.21425e-05
2.26849e-05
5.67049e-06
-6.21294e-06
-2.31539e-05
2.35423e-05
3.20543e-06
-3.59382e-06
-2.38432e-05
2.40507e-05
2.49433e-07
-4.56859e-07
-2.41593e-05
2.41664e-05
-3.22948e-06
3.22241e-06
-2.40711e-05
2.38746e-05
-7.24851e-06
7.44501e-06
-2.3581e-05
2.31967e-05
-1.1796e-05
1.21803e-05
-2.27285e-05
2.21822e-05
-1.67819e-05
1.73282e-05
-2.15584e-05
2.08468e-05
-2.19536e-05
2.26653e-05
-2.00319e-05
1.90196e-05
-2.67168e-05
2.77291e-05
-1.76203e-05
1.56365e-05
-2.93988e-05
3.13826e-05
-1.26066e-05
7.8357e-06
-2.92886e-05
3.40595e-05
-3.08599e-38
2.30913e-37
-9.34673e-37
1.49609e-35
-2.26709e-34
1.92425e-35
2.58153e-34
-8.10093e-35
3.04089e-35
3.90638e-36
-3.75898e-38
1.82513e-37
1.03062e-39
-1.77223e-41
3.577e-41
1.08082e-42
-2.79402e-44
2.76285e-44
1.66196e-45
-5.03772e-47
2.81039e-47
2.89356e-48
-9.53389e-50
2.77516e-50
4.87247e-51
-1.51678e-52
1.42182e-53
6.48549e-54
-1.65881e-55
-8.00724e-56
5.51218e-57
-1.43114e-58
-2.64855e-58
6.24714e-60
-1.47305e-61
-5.33414e-60
4.11312e-63
-9.26505e-64
-3.47325e-63
4.04828e-64
-1.28053e-64
-4.26298e-64
2.73822e-65
-2.09151e-65
-1.52518e-64
1.30825e-65
-5.35772e-66
-2.42174e-65
-1.17161e-66
8.36206e-65
-7.28965e-66
-1.78988e-63
2.33179e-62
1.1044e-61
-1.87213e-61
1.93694e-68
2.65851e-59
-3.60168e-33
1.08097e-30
-1.43915e-30
3.63292e-30
-5.30039e-29
-2.79047e-33
2.47561e-29
6.10262e-29
-2.06713e-29
-4.79497e-32
3.98774e-29
9.29555e-31
-1.08778e-32
-7.89987e-34
2.35524e-31
2.47654e-34
-6.37152e-36
-8.86622e-38
4.84283e-35
2.89599e-37
-9.6088e-39
-5.80638e-41
4.095e-38
4.89073e-40
-1.84032e-41
-5.43237e-44
4.36665e-41
9.34502e-43
-3.78231e-44
-5.55986e-47
4.0643e-44
1.78847e-45
-6.64801e-47
-1.82998e-50
6.08937e-48
2.85428e-48
-1.09648e-49
3.13808e-52
-9.48812e-50
4.1213e-51
-1.07562e-52
1.06153e-54
-2.85192e-52
3.63367e-54
-7.78641e-56
9.35701e-58
-9.9381e-55
2.25045e-57
-4.99684e-58
9.80705e-59
-2.53554e-58
1.3386e-58
-7.47071e-59
1.5567e-59
-7.47178e-59
2.72914e-60
-9.0864e-61
3.07498e-61
-2.13299e-60
1.1698e-60
-5.50237e-61
1.44785e-61
-7.82824e-61
4.32105e-61
1.81064e-60
7.46603e-62
-2.31346e-60
-5.21702e-59
7.56407e-58
-2.94904e-59
4.18845e-57
-6.47124e-57
2.02009e-64
-7.61849e-57
1.16475e-54
-3.98172e-28
1.87642e-25
-2.04422e-25
2.23405e-25
-2.45487e-24
-6.92208e-27
2.00564e-24
1.83179e-24
-2.73031e-25
-8.05362e-27
1.24032e-24
8.30179e-27
-1.2004e-28
-3.43236e-29
3.27681e-27
2.97346e-30
-9.53141e-32
-7.8183e-33
9.46065e-31
3.90674e-33
-1.49356e-34
-6.37091e-36
8.89976e-34
7.05791e-36
-2.92731e-37
-6.52892e-39
9.99008e-37
1.42082e-38
-5.71616e-40
-5.71394e-42
9.3671e-40
2.53454e-41
-9.29701e-43
-3.4087e-46
1.50564e-46
3.6645e-44
-1.21799e-45
2.32846e-47
-2.10086e-45
4.36079e-47
-1.28203e-48
6.09689e-50
-4.25872e-48
3.5062e-50
-9.07519e-52
1.10165e-51
-3.35347e-51
1.12892e-52
-5.46912e-53
1.61975e-53
-5.01731e-53
2.70364e-53
-1.2458e-53
6.48299e-54
-2.10126e-53
7.37287e-55
-8.76218e-56
1.84858e-55
-8.33975e-55
9.46925e-56
-4.1745e-56
3.63062e-56
-9.01284e-56
1.46336e-56
8.01181e-57
2.82536e-57
-2.53891e-56
-4.01079e-55
6.48166e-54
-4.18105e-55
3.07928e-53
-5.86984e-53
3.60423e-61
-1.26457e-52
1.02833e-50
-2.15609e-23
1.22073e-21
-1.42667e-21
7.07321e-21
-6.48813e-20
-8.36638e-22
6.57568e-20
4.82352e-20
-4.45755e-21
-3.61062e-22
3.29237e-20
3.27427e-23
-5.87931e-25
-2.39493e-25
1.71379e-23
1.43847e-26
-4.09565e-28
-7.82586e-29
6.41899e-27
1.47845e-29
-6.00018e-31
-7.04905e-32
4.62508e-30
2.82098e-32
-1.29937e-33
-7.82979e-35
5.40295e-33
6.03194e-35
-2.31016e-36
-7.47083e-38
5.17682e-36
8.64689e-38
-2.82219e-39
4.1294e-42
-3.20658e-40
1.13445e-40
-4.15302e-42
1.599e-43
-7.33947e-42
1.6328e-43
-4.82443e-45
6.88934e-46
-1.83006e-44
1.135e-46
-9.21264e-48
2.69919e-48
-1.58674e-47
3.43521e-48
-1.3585e-48
3.17824e-49
-2.36539e-48
4.67797e-49
-1.69847e-49
5.13124e-50
-3.66644e-49
7.83278e-51
-1.64191e-51
1.04866e-51
-7.55635e-51
1.45378e-51
-4.92223e-52
6.39052e-52
-1.56944e-51
1.26994e-52
2.09084e-55
4.54124e-53
-1.19944e-52
-1.21608e-51
2.26395e-50
-1.83279e-51
8.76035e-50
-2.19786e-49
6.46644e-59
-6.82912e-49
3.71712e-47
-3.71002e-20
6.59896e-19
-3.73643e-19
8.5291e-19
-8.17434e-19
-7.17771e-19
2.44172e-18
4.69277e-19
-2.90233e-19
-1.89318e-19
1.74249e-19
6.62457e-19
-1.47439e-19
-1.94887e-21
9.33004e-19
7.48277e-22
-2.01874e-24
-1.65466e-24
4.03937e-22
4.04579e-26
-1.41462e-27
-3.02424e-28
1.5577e-26
4.71012e-29
-1.35078e-30
-3.20764e-31
1.05873e-29
3.96248e-32
-1.38477e-33
-1.999e-34
3.93667e-33
7.58948e-35
-5.62393e-36
1.30764e-38
-6.04825e-37
4.91733e-37
-3.6043e-38
5.5885e-40
-6.30692e-38
2.08424e-39
-7.59587e-41
3.0243e-42
-4.75274e-40
6.55867e-42
-4.32763e-43
1.73286e-42
-7.83304e-42
6.13114e-44
-1.76085e-44
3.75308e-45
-4.68738e-44
4.85421e-45
-1.50845e-45
4.48459e-46
-4.0116e-45
5.80482e-47
-1.52059e-47
7.57044e-48
-5.45155e-47
1.17543e-47
-4.52883e-48
7.55044e-48
-1.71292e-47
1.29178e-48
-6.00187e-49
9.6367e-49
-1.82214e-48
-1.8104e-48
4.09562e-47
-3.55372e-48
1.1956e-46
-4.3185e-46
-7.34471e-56
-1.74502e-45
7.02856e-44
-2.24965e-17
3.49984e-17
-6.62563e-18
2.63516e-18
-1.70181e-17
-4.66328e-18
2.17943e-17
1.17945e-15
-5.28591e-14
-1.21599e-18
5.16811e-14
2.27143e-15
-1.55257e-18
-1.2485e-16
2.54051e-16
1.04748e-20
-1.7803e-22
-2.87485e-21
5.3249e-21
3.36033e-24
-7.35758e-26
-2.43905e-25
1.3122e-24
2.13143e-27
-9.91287e-29
-1.05274e-28
5.27322e-28
1.10827e-29
-1.68755e-30
-5.50412e-32
1.44729e-30
2.43057e-31
-3.18434e-32
3.84437e-35
-3.19307e-33
3.42081e-33
-2.97031e-34
4.88013e-36
-4.42896e-34
2.00623e-35
-1.07311e-36
4.67674e-38
-5.53911e-36
1.25665e-37
-1.84954e-38
1.94616e-38
-1.25754e-37
4.03069e-39
-6.13123e-40
1.61469e-39
-5.02662e-39
1.03942e-40
-1.22802e-41
3.11275e-41
-1.23198e-40
3.19305e-43
-7.16962e-44
3.05788e-44
-2.85374e-43
5.52519e-44
-2.56498e-44
3.28594e-44
-1.06201e-43
6.76046e-45
-1.81449e-45
6.53799e-45
-1.2452e-44
-1.39863e-45
4.36482e-44
-3.35489e-45
8.08497e-44
-5.08213e-43
-2.36395e-52
-2.51099e-42
7.90822e-41
-3.75808e-15
6.79009e-15
-1.14312e-14
4.03927e-13
-3.95446e-11
-7.07391e-14
1.49953e-11
2.12922e-11
-6.54252e-14
-3.38254e-12
4.57841e-11
3.91708e-18
-4.35462e-20
-3.91668e-18
7.61281e-20
3.99609e-20
-3.015e-21
-1.85634e-20
3.76262e-20
5.28987e-23
-5.39361e-24
-5.0503e-24
2.70695e-23
2.37049e-24
-1.16176e-24
-7.48821e-27
1.05804e-24
2.68872e-25
-4.31119e-26
-1.9528e-28
4.04343e-26
6.22391e-27
-7.63861e-28
1.71258e-30
-6.70206e-28
8.01313e-29
-5.99118e-30
1.84704e-31
-4.66361e-29
3.31304e-31
-1.47977e-32
1.4606e-33
-2.74249e-31
1.07657e-33
-1.25707e-34
1.04799e-35
-8.29943e-34
1.99054e-35
-3.56766e-36
1.70743e-36
-1.77806e-35
8.18631e-37
-2.05791e-37
4.35934e-37
-1.05548e-36
5.18588e-39
-3.47522e-40
2.87388e-39
-7.73565e-39
1.8956e-40
-6.95591e-41
7.41332e-41
-2.47265e-40
1.76705e-41
-4.79705e-42
1.17564e-41
-3.77788e-41
-3.35871e-43
2.95277e-41
-9.45973e-43
8.45565e-42
-3.8694e-40
-8.36145e-49
-2.24543e-39
5.72174e-38
7.11059e-10
-1.64035e-11
-5.82236e-10
2.17058e-10
1.85216e-09
-9.18392e-11
3.19392e-09
-7.76975e-10
-1.77177e-17
-1.86701e-10
2.4418e-10
3.0254e-20
-7.41627e-20
-4.65371e-20
5.63688e-20
1.03717e-19
-1.92743e-20
-6.11938e-20
1.03572e-19
6.25237e-21
-4.90419e-21
-4.15603e-22
6.01454e-21
2.38785e-21
-2.32269e-22
-3.68488e-23
9.80302e-22
5.79514e-23
-1.23503e-23
-1.42917e-24
4.87252e-24
2.01582e-24
-2.50671e-25
1.85143e-26
-3.9846e-26
2.83328e-26
-2.63013e-27
7.70488e-28
-4.40589e-27
2.82859e-28
-3.47753e-29
3.30945e-30
-1.29227e-28
6.14023e-30
-5.93929e-31
6.9479e-32
-5.52333e-30
7.80396e-32
-1.20233e-32
1.1194e-33
-7.85908e-32
2.22911e-33
-4.27161e-34
6.37844e-35
-2.87982e-33
9.3204e-36
-1.83196e-36
1.98156e-36
-1.52249e-35
1.07428e-36
-3.84651e-37
1.62084e-36
-2.83539e-36
4.42201e-38
-7.8519e-39
2.98127e-38
-7.80799e-38
2.24538e-39
1.32338e-38
1.4914e-39
-1.69706e-38
-2.00522e-37
-1.42464e-45
-1.32799e-36
2.79921e-35
-9.17111e-06
8.68963e-06
4.81482e-07
-1.91935e-06
4.88898e-06
2.2916e-05
-2.58856e-05
-7.73061e-06
1.00221e-05
2.6374e-05
-2.86656e-05
-1.19587e-05
1.38591e-05
1.92151e-05
-2.11155e-05
-1.59133e-05
1.81599e-05
1.51453e-05
-1.73919e-05
-2.05465e-05
2.29915e-05
1.41676e-05
-1.66126e-05
-2.54229e-05
2.77937e-05
1.41014e-05
-1.64722e-05
-3.00818e-05
3.22832e-05
1.38769e-05
-1.60783e-05
-3.44031e-05
3.64491e-05
1.32512e-05
-1.52973e-05
-3.84268e-05
4.03376e-05
1.22364e-05
-1.41472e-05
-4.21782e-05
4.39404e-05
1.08435e-05
-1.26058e-05
-4.56131e-05
4.7181e-05
9.04436e-06
-1.06123e-05
-4.86275e-05
4.99352e-05
6.7816e-06
-8.08923e-06
-5.10863e-05
5.20644e-05
4.01022e-06
-4.9884e-06
-5.28544e-05
5.34434e-05
6.94461e-07
-1.28346e-06
-5.38206e-05
5.39828e-05
-3.18376e-06
3.0215e-06
-5.39277e-05
5.36543e-05
-7.61095e-06
7.88434e-06
-5.31668e-05
5.24708e-05
-1.25406e-05
1.32367e-05
-5.15715e-05
5.04693e-05
-1.7864e-05
1.89662e-05
-4.91544e-05
4.75931e-05
-2.33914e-05
2.49527e-05
-4.57116e-05
4.33681e-05
-2.87984e-05
3.11419e-05
-4.02574e-05
3.58545e-05
-3.35362e-05
3.7939e-05
-2.93982e-05
2.08736e-05
-3.88521e-05
4.73767e-05
-7.81231e-06
6.49852e-06
1.31379e-06
-3.03651e-06
5.71905e-06
2.87829e-05
-3.14654e-05
-8.1314e-06
1.00862e-05
3.07214e-05
-3.26762e-05
-1.18883e-05
1.387e-05
2.30117e-05
-2.49933e-05
-1.6136e-05
1.86215e-05
1.97571e-05
-2.22426e-05
-2.12091e-05
2.37983e-05
1.91493e-05
-2.17385e-05
-2.6329e-05
2.87787e-05
1.8902e-05
-2.13517e-05
-3.11484e-05
3.3449e-05
1.83457e-05
-2.06463e-05
-3.56926e-05
3.78879e-05
1.74363e-05
-1.96316e-05
-4.00386e-05
4.21459e-05
1.61785e-05
-1.82857e-05
-4.42076e-05
4.62164e-05
1.45119e-05
-1.65207e-05
-4.81598e-05
5.00206e-05
1.2339e-05
-1.41998e-05
-5.17806e-05
5.34219e-05
9.55888e-06
-1.12002e-05
-5.49255e-05
5.6271e-05
6.11789e-06
-7.46344e-06
-5.74347e-05
5.83973e-05
1.9999e-06
-2.9625e-06
-5.91625e-05
5.96664e-05
-2.768e-06
2.26411e-06
-5.98806e-05
5.98081e-05
-8.10175e-06
8.17422e-06
-5.94487e-05
5.88232e-05
-1.38888e-05
1.45143e-05
-5.79596e-05
5.68789e-05
-2.00254e-05
2.11061e-05
-5.55946e-05
5.41111e-05
-2.64681e-05
2.79517e-05
-5.24372e-05
5.0574e-05
-3.3321e-05
3.51842e-05
-4.85462e-05
4.63318e-05
-4.13817e-05
4.35962e-05
-4.4093e-05
4.1831e-05
-5.27012e-05
5.49633e-05
-4.47312e-06
1.01583e-06
3.45729e-06
-4.12267e-06
5.667e-06
3.36526e-05
-3.51969e-05
-7.20605e-06
8.9826e-06
3.46523e-05
-3.64289e-05
-1.09428e-05
1.31083e-05
2.71195e-05
-2.9285e-05
-1.5446e-05
1.78496e-05
2.47729e-05
-2.71765e-05
-2.0223e-05
2.25146e-05
2.42571e-05
-2.65487e-05
-2.47124e-05
2.68251e-05
2.3692e-05
-2.58047e-05
-2.88678e-05
3.08533e-05
2.28373e-05
-2.48228e-05
-3.27888e-05
3.46769e-05
2.17132e-05
-2.36012e-05
-3.65175e-05
3.8308e-05
2.02726e-05
-2.20631e-05
-4.00402e-05
4.17001e-05
1.84189e-05
-2.00789e-05
-4.32766e-05
4.47712e-05
1.59807e-05
-1.74753e-05
-4.62023e-05
4.75962e-05
1.28489e-05
-1.42427e-05
-4.89827e-05
5.04162e-05
8.99648e-06
-1.04301e-05
-5.19585e-05
5.36547e-05
4.2921e-06
-5.98831e-06
-5.53852e-05
5.66432e-05
-1.12624e-06
-1.31654e-07
-5.81322e-05
5.94725e-05
-7.57554e-06
6.23526e-06
-6.06294e-05
6.15485e-05
-1.46027e-05
1.36836e-05
-6.21685e-05
6.24093e-05
-2.19186e-05
2.16778e-05
-6.21678e-05
6.14097e-05
-2.93624e-05
3.01205e-05
-6.02949e-05
5.90663e-05
-3.68248e-05
3.80533e-05
-5.79144e-05
5.70443e-05
-4.49641e-05
4.58342e-05
-5.68023e-05
5.73868e-05
-5.52739e-05
5.46894e-05
4.96641e-06
-1.45592e-05
9.59289e-06
-1.25764e-05
1.50429e-05
3.66574e-05
-3.91135e-05
-1.31852e-05
1.16411e-05
3.71078e-05
-3.55535e-05
-1.22331e-05
1.41771e-05
3.12882e-05
-3.32234e-05
-1.65458e-05
1.9036e-05
2.94268e-05
-3.19084e-05
-2.15715e-05
2.41771e-05
2.8734e-05
-3.07914e-05
-2.68075e-05
2.94228e-05
2.79511e-05
-2.79706e-05
-3.19675e-05
3.43882e-05
2.6985e-05
-2.40743e-05
-3.66303e-05
3.86219e-05
2.57998e-05
-1.95763e-05
-4.0271e-05
4.15101e-05
2.4235e-05
-1.48565e-05
-4.23618e-05
4.29369e-05
2.20916e-05
-1.04751e-05
-4.33643e-05
4.37231e-05
1.93621e-05
-7.07095e-06
-4.39992e-05
4.39224e-05
1.61212e-05
-1.13134e-06
-4.37004e-05
4.43096e-05
1.16005e-05
-1.34594e-08
-4.59132e-05
4.84516e-05
6.63361e-06
-1.71665e-09
-5.28042e-05
5.8225e-05
1.35789e-06
-5.22396e-12
-6.37045e-05
6.83546e-05
-5.89806e-06
2.46915e-06
-7.19386e-05
7.41215e-05
-1.33279e-05
9.34678e-06
-7.28962e-05
7.0055e-05
-2.09259e-05
2.37671e-05
-6.61505e-05
6.30666e-05
-2.98134e-05
3.28973e-05
-6.15369e-05
6.1391e-05
-3.82803e-05
3.84263e-05
-6.19986e-05
6.29662e-05
-4.60963e-05
4.51287e-05
-6.42487e-05
6.59281e-05
-5.37564e-05
5.2077e-05
2.22516e-05
3.29014e-18
3.87828e-06
-3.70179e-06
6.72535e-07
1.51683e-05
-8.72227e-08
-8.90351e-07
1.37082e-06
1.17173e-05
-7.94691e-12
-9.68308e-07
4.91675e-07
1.02964e-05
-1.25627e-15
-2.68049e-07
2.51395e-07
8.10804e-06
3.14984e-19
-8.41745e-08
1.99644e-09
8.2178e-08
5.75726e-18
-4.83211e-11
1.19909e-12
4.7122e-11
9.1012e-18
-3.01727e-14
7.57927e-16
2.94086e-14
6.20739e-18
-1.83502e-17
2.93819e-19
1.25603e-17
5.49609e-18
-6.73365e-18
6.44449e-14
3.43995e-12
-3.50396e-12
-4.94949e-12
4.20876e-11
1.42781e-09
-1.47324e-09
-2.39089e-10
6.29554e-10
9.60666e-09
-1.03493e-08
-1.15152e-09
1.83852e-09
7.81118e-09
-9.47427e-09
-2.55668e-09
4.00719e-09
1.2937e-09
-2.49363e-09
-8.052e-09
5.23912e-09
1.50262e-09
-6.24393e-09
-6.5037e-10
6.41721e-10
-3.14567e-13
-2.98958e-11
-1.23389e-08
5.62603e-08
-4.43507e-08
4.25668e-10
-1.4775e-07
3.35189e-07
-1.92077e-07
5.43688e-09
-5.52225e-07
8.39411e-07
-3.21964e-07
3.49978e-08
-2.94134e-06
1.32299e-05
-1.34572e-05
2.76195e-07
-3.64489e-05
6.31587e-05
-4.22625e-05
2.15135e-06
-7.32723e-05
7.77781e-05
-4.73518e-05
4.28453e-05
-7.47919e-05
7.25173e-05
-5.07708e-05
5.30454e-05
-8.92494e-18
5.14929e-18
1.05924e-18
-2.68313e-20
5.54689e-21
-1.47602e-19
3.09295e-19
-1.6093e-21
-4.3714e-21
-3.17484e-20
9.27292e-20
1.91677e-20
-6.65971e-20
-4.13767e-19
9.59061e-19
2.2698e-19
-6.31074e-19
-3.47592e-18
5.95709e-18
1.47451e-18
-2.72521e-18
-1.30888e-17
1.86325e-17
3.7111e-18
-3.51571e-18
-1.62013e-17
1.57261e-17
2.25143e-18
-1.41036e-18
-6.9437e-18
-2.2468e-18
1.87258e-18
-5.68693e-19
-7.17191e-18
4.59264e-18
-2.4587e-14
4.48046e-10
6.77307e-12
-4.54995e-10
-1.08082e-08
2.05063e-08
8.29774e-09
-3.98237e-08
-2.62303e-08
2.87284e-08
3.14376e-08
-3.31341e-08
-2.83388e-08
2.71925e-08
1.80492e-08
-1.51774e-08
-1.90347e-08
1.02555e-08
1.50902e-08
-7.27523e-11
-3.68182e-09
1.4128e-10
3.54234e-09
-1.61347e-12
-3.8544e-11
1.9779e-11
6.46546e-12
-7.90694e-12
-1.77323e-11
1.83831e-11
-2.17837e-11
5.93068e-14
-3.94628e-11
1.30863e-10
-1.22462e-10
1.6069e-11
-4.32213e-10
1.42451e-09
-1.03942e-09
4.4353e-11
-5.01652e-09
1.88699e-08
-1.45375e-08
5.7783e-10
-5.98764e-08
1.60089e-07
-1.06397e-07
5.22864e-09
-4.771e-07
1.15262e-06
-7.62157e-07
7.39077e-08
-5.68478e-06
2.49669e-05
-3.03772e-05
3.00587e-07
-1.37499e-19
2.67276e-23
1.29662e-20
-2.62403e-20
3.85152e-21
-1.89746e-19
1.00532e-20
-4.63022e-21
-1.4332e-21
-1.2015e-19
1.23542e-19
2.29992e-20
-1.20795e-19
-1.30272e-18
1.4174e-18
4.37851e-19
-1.22732e-18
-7.44879e-18
7.75966e-18
2.76904e-18
-4.76644e-18
-2.03716e-17
1.87578e-17
5.37531e-18
-2.33001e-18
-7.46933e-18
-6.40695e-18
-1.18254e-17
2.04019e-17
1.32647e-17
-1.34845e-16
-7.95389e-18
9.26832e-18
1.74795e-19
-1.48923e-18
-3.15561e-10
1.19843e-08
1.51631e-08
-3.04393e-08
-1.37955e-08
8.97984e-09
4.24893e-08
-3.6189e-08
-4.04745e-09
7.32026e-11
4.06309e-09
-8.38194e-11
-1.6624e-12
7.20398e-13
3.11115e-12
-2.17465e-12
-8.66007e-13
1.04168e-12
2.1551e-12
-2.33627e-12
-1.35668e-12
2.06316e-12
1.86235e-12
-2.63977e-12
-1.03575e-09
3.64214e-09
1.12762e-10
-8.58593e-09
-5.1743e-09
7.68711e-10
-9.74554e-11
-2.96792e-09
-6.00997e-11
1.4803e-11
-3.50245e-12
3.93003e-11
-5.20378e-12
5.44132e-12
-9.15363e-12
2.44864e-12
-7.97429e-12
2.97305e-11
-2.46151e-11
1.84204e-12
-1.10188e-10
3.57261e-10
-2.59215e-10
1.98112e-11
-1.27528e-09
5.21486e-09
-4.5578e-09
2.81419e-09
-1.55653e-08
4.95681e-08
-2.32034e-08
8.15788e-09
-8.60852e-24
3.12785e-24
6.38702e-24
-2.07928e-22
7.53919e-22
-3.28031e-21
2.40893e-21
4.31116e-24
-4.05315e-21
-1.16239e-19
9.97748e-20
3.22883e-20
-1.51445e-19
-1.36168e-18
1.19068e-18
5.10021e-19
-1.33401e-18
-7.20607e-18
6.10488e-18
2.7758e-18
-4.00254e-18
-1.51884e-17
1.0931e-17
1.7823e-18
4.70421e-17
3.63843e-17
-1.28865e-16
-1.45258e-16
1.7461e-16
3.11125e-16
-3.85913e-16
-1.27327e-16
4.13169e-17
1.64171e-17
-2.4279e-17
-6.41346e-16
4.21108e-09
1.82004e-08
-4.91403e-14
-3.7573e-09
-7.57889e-12
9.99203e-09
-2.43189e-09
-3.96542e-11
-7.09764e-12
7.21342e-11
-7.81376e-10
-5.19985e-13
6.94297e-13
2.20386e-12
-2.38713e-12
-7.26079e-13
2.61199e-12
2.55528e-12
-1.43498e-11
-9.69499e-12
2.02299e-10
1.35364e-11
-2.05845e-10
-1.15837e-08
1.98399e-08
2.77449e-08
-1.18638e-09
-2.41824e-08
3.02042e-08
1.79503e-08
-2.37086e-08
-1.67969e-08
3.76908e-10
-4.0246e-10
1.68763e-09
-5.17906e-11
5.08122e-12
-4.40501e-12
4.85852e-11
-1.57716e-12
8.84497e-13
-9.94164e-13
1.055e-12
-1.00684e-12
4.25067e-12
-9.60435e-12
5.7287e-12
-5.64641e-08
8.99205e-08
-8.43301e-09
5.18071e-08
-7.84877e-08
8.02898e-08
-2.73005e-08
5.20832e-08
-2.31301e-24
2.20189e-24
-2.88029e-25
1.05976e-24
-3.93562e-23
-1.80479e-21
1.30193e-21
5.83147e-22
-5.30209e-21
-7.96674e-20
5.96671e-20
3.07883e-20
-1.2632e-19
-9.60348e-19
7.19714e-19
3.91525e-19
-9.50365e-19
-4.75872e-18
3.42744e-18
1.7931e-18
-1.93875e-18
-7.00165e-18
4.0072e-18
-8.65944e-18
7.42349e-17
1.9978e-16
-1.93762e-16
-1.68977e-16
1.83859e-16
3.97548e-16
-3.17095e-16
-3.85247e-16
4.9715e-15
2.91558e-16
-1.9401e-14
-2.29996e-14
3.09956e-14
5.12276e-14
-2.58074e-13
-1.19679e-14
2.89085e-15
6.14816e-15
-2.07127e-14
-5.67652e-10
9.89123e-11
1.23391e-09
-5.23097e-10
-3.32914e-13
1.47046e-12
2.67892e-12
-3.93518e-12
-6.19191e-12
2.10862e-11
6.71033e-11
-4.72263e-11
-2.61718e-11
1.6502e-12
8.4779e-12
-4.41623e-12
-1.17037e-12
1.07284e-12
9.52444e-12
-2.34515e-11
-1.15737e-12
1.00243e-08
2.78214e-08
-6.62712e-11
-1.67674e-08
2.4109e-08
2.1016e-09
-8.91998e-09
-1.59374e-08
9.20908e-10
-6.36026e-10
1.08565e-08
-7.3862e-11
1.2216e-11
-3.27667e-12
6.39705e-11
-1.08906e-11
5.59754e-08
-3.62534e-08
2.29515e-08
-7.42098e-08
7.25005e-08
-4.9551e-08
5.51975e-08
-3.26255e-08
1.96563e-09
-4.64204e-08
-9.26518e-10
-2.06075e-24
1.75078e-24
-3.78466e-25
3.42689e-24
-4.99272e-23
-9.08178e-22
6.07335e-22
5.38564e-22
-3.88777e-21
-4.20783e-20
2.79481e-20
1.96855e-20
-7.37248e-20
-5.02821e-19
3.27697e-19
2.11673e-19
-4.71636e-19
-2.28379e-18
1.4073e-18
7.84615e-19
-5.7389e-19
-2.08833e-18
1.03288e-18
-5.72908e-18
5.50297e-17
1.24105e-16
-6.3944e-17
-1.31147e-16
9.68275e-17
2.50874e-16
-1.88683e-16
-1.40546e-16
3.30483e-13
2.23285e-13
-2.61234e-13
-7.05516e-13
7.76572e-13
1.26972e-12
-1.2991e-12
-3.36651e-13
4.19377e-15
9.48804e-14
-1.99134e-13
-2.1414e-15
2.82771e-16
2.35409e-15
-5.50976e-16
-2.9833e-12
4.58138e-12
1.12242e-11
-1.22511e-11
-4.56567e-12
2.35754e-13
6.40442e-12
-7.80812e-12
-6.86724e-14
6.89289e-14
8.42351e-14
-8.38102e-14
-1.19338e-11
8.7392e-12
1.34215e-10
-1.61968e-10
5.42982e-12
1.18554e-12
8.44306e-11
-7.43603e-11
1.48842e-09
2.83081e-09
1.62429e-08
-3.50352e-09
-1.14612e-08
1.97541e-08
-1.29028e-08
5.33076e-09
-1.15809e-08
2.74462e-10
-1.02191e-09
6.39794e-09
-3.18593e-11
3.06701e-10
-7.01111e-11
-4.32209e-11
-1.46461e-09
2.29843e-09
-5.84275e-09
-5.00634e-12
-2.92972e-10
1.24108e-10
1.63129e-10
-1.16799e-11
-1.33013e-24
9.03434e-25
-1.97669e-25
1.94181e-24
-2.72442e-23
-3.86432e-22
2.32125e-22
2.79798e-22
-1.87421e-21
-1.74444e-20
1.01949e-20
8.80605e-21
-3.0771e-20
-1.99006e-19
1.12352e-19
8.20214e-20
-1.65908e-19
-8.00806e-19
4.19797e-19
2.37994e-19
-1.344e-19
-5.05722e-19
2.47132e-19
-6.67372e-19
8.59743e-18
2.3079e-17
-6.31227e-18
-3.61694e-17
5.00603e-17
1.48671e-16
-1.10273e-16
-6.52263e-17
1.37058e-14
2.12668e-14
-5.90452e-17
-2.17286e-13
3.07486e-13
1.14657e-12
-4.57989e-17
-2.86139e-14
6.58358e-16
5.29186e-14
-1.8766e-15
-8.28141e-17
9.61463e-17
1.92098e-16
-2.6289e-16
-7.90519e-17
1.87283e-12
4.41098e-12
-8.48266e-17
-4.05421e-12
3.45258e-12
1.15151e-11
-3.44534e-12
-5.48275e-14
1.69228e-14
4.48615e-14
-7.00664e-15
-5.51469e-15
5.09482e-12
6.73289e-11
-1.39579e-15
-5.45887e-12
-5.1249e-12
1.78572e-10
-1.50904e-15
-1.13324e-12
-3.41947e-11
3.57775e-11
-4.67751e-13
3.39381e-09
-1.80612e-09
1.30371e-09
-2.35415e-09
-4.95299e-10
-1.49848e-10
-2.07728e-09
8.68377e-10
1.34224e-11
2.46006e-11
-5.89306e-13
4.63885e-12
-6.69936e-11
5.95321e-11
2.85996e-11
1.1008e-11
-9.30189e-12
1.6236e-12
7.76234e-13
7.32337e-13
-5.51025e-25
3.03181e-25
-5.89882e-26
6.47448e-25
-9.69343e-24
-1.30619e-22
6.83524e-23
9.83072e-23
-6.29013e-22
-5.55391e-21
2.80629e-21
2.80046e-21
-9.20375e-21
-5.87725e-20
2.83707e-20
2.27183e-20
-4.11889e-20
-2.02105e-19
8.90357e-20
5.05992e-20
-3.0069e-20
-1.18054e-19
5.01942e-20
-5.50031e-20
5.67229e-19
1.65622e-18
-4.14285e-19
-3.29986e-18
1.68421e-17
5.42325e-17
-1.27361e-17
-2.06102e-17
1.85257e-17
4.98101e-17
-4.74157e-17
-1.45307e-17
1.4661e-17
4.07403e-17
-3.50342e-17
-1.55031e-17
5.69725e-17
1.02786e-16
-8.92627e-17
-1.14156e-16
1.36306e-16
3.29997e-16
-3.2333e-16
-1.09235e-16
4.42226e-17
1.1431e-16
-1.90158e-16
-6.53801e-18
5.11861e-18
1.86479e-17
-2.0114e-17
-4.79118e-18
1.53136e-16
3.61648e-16
-2.82668e-16