/*--------------------------------*- C++ -*----------------------------------*\
| =========                 |                                                 |
| \\      /  F ield         | OpenFOAM: The Open Source CFD Toolbox           |
|  \\    /   O peration     | Version:  v1912                                 |
|   \\  /    A nd           | Website:  www.openfoam.com                      |
|    \\/     M anipulation  |                                                 |
\*---------------------------------------------------------------------------*/
FoamFile
{
    version     2.0;
    format      ascii;
    class       volScalarField;
    location    "0.35";
    object      alpha.water;
}
// * * * * * * * * * * * * * * * * * * * * * * * * * * * * * * * * * * * * * //

dimensions      [0 0 0 0 0 0 0];


internalField   nonuniform List<scalar> 
9072
(
1
1
1
1
1
1
1
1
1
1
1
1
1
1
1
1
1
1
1
0.891597
0.842638
0.997968
0.997992
1
1
1
1
1
1
1
1
1
1
1
1
1
1
1
1
1
1
1
0.999999
0.994281
0.961493
0.858724
1
1
1
1
1
1
1
1
1
1
1
1
1
1
1
1
1
1
1
1
1
0.83206
0.842278
1
1
1
1
1
1
1
1
1
1
1
1
1
1
1
1
1
1
1
1
1
0.932391
0.975495
1
1
1
1
1
1
1
1
1
1
1
1
1
1
1
1
1
1
1
1
1
0.999999
0.999999
1
1
1
1
1
1
1
1
1
1
1
1
1
1
1
1
1
1
1
1
1
1
1
1
1
1
1
1
1
1
1
1
1
1
1
1
1
1
1
1
1
1
1
1
1
1
1
1
1
1
1
1
1
1
1
1
1
1
1
1
1
1
1
1
1
1
1
1
1
1.03524e-32
8.46244e-30
2.15435e-29
1.59977e-31
3.56845e-35
3.37497e-38
4.75935e-41
7.8294e-44
1.27423e-46
1.45e-49
4.82766e-53
9.28647e-57
5.15145e-59
9.23408e-60
1.45444e-60
4.02539e-61
-1.2612e-61
-2.80396e-58
-5.74438e-56
2.38642e-27
1.83846e-24
5.37646e-24
3.88568e-26
8.98875e-30
9.56214e-33
1.50521e-35
2.75795e-38
5.18003e-41
7.86478e-44
1.09636e-46
8.0645e-50
4.28234e-53
5.81738e-57
1.99299e-58
1.31416e-58
-4.53162e-59
-1.0491e-53
-2.55605e-51
2.21648e-22
8.87886e-20
1.12064e-19
3.4274e-22
1.07825e-25
1.28093e-28
2.15563e-31
4.15829e-34
7.2838e-37
1.00996e-39
1.17788e-42
1.0375e-45
3.8906e-50
1.4619e-51
2.49098e-53
7.48288e-54
-5.21125e-55
-7.98759e-50
-2.29527e-47
1.03519e-17
2.15648e-15
2.7258e-15
1.32644e-18
5.15973e-22
4.77358e-25
8.50553e-28
1.73736e-30
2.43703e-33
3.03402e-36
3.57803e-39
2.14288e-42
1.00164e-45
2.11415e-46
4.15127e-48
8.75521e-49
-1.88004e-52
-2.38432e-46
-8.45592e-44
7.44803e-15
8.09857e-14
3.07299e-14
5.30533e-14
2.59583e-17
1.26828e-21
1.37087e-24
1.10955e-27
2.1569e-30
1.19354e-32
3.22878e-35
2.34896e-40
1.86019e-41
3.4007e-42
5.60647e-44
2.46778e-44
8.21319e-46
-3.49191e-43
-1.63311e-40
4.2684e-13
1.44683e-13
3.17375e-14
2.29828e-11
3.80921e-16
1.02175e-19
6.09876e-23
3.34377e-25
7.06154e-27
6.2875e-29
1.52114e-31
2.56839e-35
2.02157e-37
1.69764e-38
1.64399e-40
3.04116e-40
1.12509e-41
-2.64057e-40
-1.88128e-37
4.06715e-11
3.26619e-07
2.12915e-06
2.02252e-15
2.25161e-15
1.63781e-18
9.28315e-20
8.20081e-21
1.78175e-22
2.06168e-24
7.5903e-27
1.01242e-30
1.66643e-32
1.90678e-34
7.45143e-37
3.78126e-37
8.47374e-38
-6.18704e-38
-1.39718e-34
1.43933e-08
0.000274692
1.35559e-05
3.04417e-15
6.79236e-15
2.85448e-16
7.68578e-17
1.79669e-18
5.68827e-20
5.75973e-22
1.71677e-24
5.53323e-27
2.05698e-28
1.41386e-29
8.23643e-32
4.43457e-33
9.91155e-35
0
-7.03738e-32
1
1
1
1
1
1
1
1
1
1
1
1
1
1
1
1
1
1
1
1
1
1
1
1
1
1
1
1
1
1
1
1
1
1
1
1
1
1
1
1
1
1
1
1
1
1
1
1
1
1
1
1
1
1
1
1
1
1
1
1
1
1
1
1
1
1
1
1
1
0.999999
0.99985
0.999868
0.999876
0.999868
0.999226
0.992839
0.974109
0.937807
0.881209
0.80531
0.717693
0.625419
0.541467
0.50756
0.55454
0.686178
0.86737
1
1
1
1
1
0.373579
0.0629129
0.0618752
0.0266483
0.0044957
-1.17589e-36
-3.70848e-48
-8.48183e-57
1.35819e-45
1.44956e-13
1.03902e-07
3.45796e-06
1.49357e-05
2.50047e-05
6.56628e-05
8.86726e-07
1.85178e-06
2.39247e-05
0.000162559
0.0485351
0.439966
0.999996
1
-2.48476e-13
-3.55753e-15
-1.00721e-15
-1.11005e-14
-9.56379e-14
-3.68305e-13
-4.74307e-13
-2.20286e-13
-2.68261e-13
2.57214e-10
0.000479256
0.00057982
0.00057021
0.000474985
3.38738e-08
1.73128e-07
1.62112e-07
1.34678e-07
1.30922e-07
3.43764e-06
2.87661e-05
0.00035946
0.117156
-7.37865e-15
-4.0173e-15
-3.01058e-15
-3.41251e-14
-1.97656e-13
-5.55293e-13
-2.15292e-13
1.54454e-12
-4.86656e-24
0.000565928
0.000589393
6.43746e-08
3.31852e-08
3.31852e-08
3.35649e-08
3.4284e-05
2.54076e-05
7.21275e-08
5.12603e-08
2.00011e-08
8.80562e-08
4.24344e-06
4.64178e-05
-8.13459e-19
-6.30997e-17
-2.65806e-15
-3.30657e-14
-1.78413e-13
-3.87956e-13
1.91429e-12
9.71359e-12
4.18628e-13
6.93369e-05
2.72358e-05
3.06288e-06
3.32058e-08
6.19378e-08
3.90216e-08
0.000446807
0.000522927
7.02421e-05
2.45235e-08
1.17986e-08
1.17986e-08
0.00104828
0.000949851
-2.57774e-19
-3.29098e-17
-1.70982e-15
-2.17389e-14
-1.10035e-13
-1.66259e-13
4.90497e-12
9.25722e-12
7.77343e-11
7.55022e-10
1.05519e-10
1.86145e-05
3.66402e-08
1.17003e-06
1.25684e-07
8.86768e-08
0.000251914
0.00052478
4.49626e-05
1.33689e-08
0.000444406
0.00118646
0.000356258
-1.73295e-19
-1.61363e-17
-8.64339e-16
-1.07265e-14
-4.95857e-14
-4.61937e-14
2.08172e-12
4.9369e-12
5.39624e-09
2.71158e-08
2.58854e-09
4.05821e-12
2.25221e-07
1.77218e-08
1.25958e-09
2.59198e-06
1.18952e-06
0.000353579
0.000524376
0.000114395
1.25977e-06
9.17161e-06
2.47872e-06
-8.07731e-20
-6.76985e-18
-3.45917e-16
-4.03655e-15
-1.64415e-14
-1.05036e-14
3.078e-13
2.65909e-12
1.38549e-12
1.38991e-08
3.61896e-10
3.10509e-12
6.24919e-09
1.9933e-07
2.10809e-11
6.73796e-08
1.37687e-06
5.57063e-10
0.000260637
4.58333e-05
2.87692e-07
1.11744e-06
3.069e-08
-2.58577e-20
-2.25672e-18
-1.06415e-16
-1.13965e-15
-3.94758e-15
-2.32133e-15
2.00837e-14
6.96353e-13
9.70696e-13
6.48655e-13
1.66142e-12
5.92224e-12
2.02637e-12
2.62052e-13
5.28028e-12
2.17673e-11
2.17672e-11
1.80901e-10
1.87796e-10
7.51459e-06
1.35714e-09
7.21265e-11
1.8779e-09
-5.8633e-21
-5.59235e-19
-2.4181e-17
-2.33818e-16
-6.6723e-16
-3.63415e-16
1.05179e-15
2.73826e-14
2.68892e-13
3.80669e-13
8.48833e-13
4.37782e-12
3.02479e-12
3.21068e-13
1.61338e-12
1.58055e-11
1.19502e-11
4.26647e-11
2.70406e-10
1.50808e-10
3.65342e-10
1.73145e-11
1.80522e-12
-9.31115e-22
-9.75777e-20
-3.87677e-18
-3.34121e-17
-7.67552e-17
-3.92395e-17
3.43981e-17
8.96429e-16
9.30332e-15
1.77982e-14
5.47399e-14
3.84132e-13
2.93175e-13
1.12415e-13
4.83232e-13
8.17608e-13
5.79948e-13
2.451e-13
4.07555e-14
1.68083e-14
1.25266e-14
5.66578e-15
8.46254e-16
-9.82703e-23
-1.13443e-20
-4.14573e-19
-3.14925e-18
-5.79848e-18
-2.71388e-18
6.23984e-19
2.68289e-17
2.24632e-16
3.6215e-16
1.49514e-15
8.8574e-15
6.32047e-15
4.46526e-15
3.30253e-14
6.84133e-14
4.79012e-14
5.12515e-15
2.74777e-17
4.00123e-19
0
-1.45129e-19
-3.61491e-19
-6.27057e-24
-8.16797e-22
-2.7398e-20
-1.8186e-19
-2.74444e-19
-1.1369e-19
7.13893e-21
5.0129e-19
3.31326e-18
5.99565e-18
1.47403e-17
5.67959e-17
3.70906e-17
5.69426e-17
5.37129e-16
9.39471e-16
6.524e-16
5.90663e-17
1.23477e-19
-1.32949e-20
-1.39287e-19
-4.8902e-19
-1.09352e-18
-2.06526e-25
-3.25114e-23
-9.97253e-22
-5.76036e-21
-7.37916e-21
-2.72266e-21
9.22554e-23
6.26216e-21
3.42019e-20
7.31489e-20
9.62238e-20
1.22676e-19
8.1178e-20
2.48514e-19
2.27841e-18
3.78618e-18
2.66845e-18
2.5275e-19
0
-4.11602e-20
-2.31193e-19
-7.83735e-19
-1.71229e-18
-2.59817e-27
-5.85013e-25
-1.63662e-23
-8.23337e-23
-9.1314e-23
-2.93816e-23
1.66961e-24
5.44318e-23
2.61009e-22
5.75529e-22
7.49751e-22
7.26082e-22
2.10146e-22
-3.92621e-22
-1.79719e-22
-4.15409e-23
-7.18202e-22
-2.37707e-21
-6.57415e-21
-4.60757e-20
-2.48845e-19
-8.14312e-19
-1.63894e-18
-5.17322e-30
-3.00895e-27
-7.67513e-26
-3.36612e-25
-3.22484e-25
-8.14688e-26
1.90202e-26
2.74808e-25
1.22945e-24
2.54854e-24
2.55336e-24
-1.06373e-24
-4.69368e-23
-2.91691e-22
-6.73176e-22
-9.04743e-22
-8.72455e-22
-8.3268e-22
-3.98346e-21
-3.65192e-20
-1.92013e-19
-5.79328e-19
-9.75364e-19
-2.25794e-36
-6.28695e-36
-1.85692e-34
-9.77232e-33
-2.29105e-31
2.16672e-29
6.07956e-29
7.36791e-28
3.0584e-27
-2.08716e-27
-2.42842e-25
-2.25881e-24
-8.11475e-24
-1.5644e-23
-1.99459e-23
-1.89856e-23
-1.71915e-23
-1.26809e-22
-2.46962e-21
-2.35221e-20
-1.12196e-19
-2.88586e-19
-3.03663e-19
-1.09483e-38
-2.24513e-37
-3.13181e-35
-1.77509e-33
-4.62041e-32
-4.46785e-31
-1.62008e-30
-7.76915e-30
-1.73112e-28
-5.22881e-27
-6.76244e-26
-3.37635e-25
-8.37848e-25
-1.26379e-24
-1.33405e-24
-1.10305e-24
-2.31752e-24
-7.38655e-23
-1.57117e-21
-1.37369e-20
-5.52673e-20
-9.97293e-20
0
-1.87275e-41
-1.74112e-38
-3.36038e-36
-2.02464e-34
-5.7002e-33
-8.66053e-32
-6.75434e-31
-5.11057e-30
-6.33694e-29
-8.26625e-28
-5.88543e-27
-2.01715e-26
-3.91931e-26
-5.01088e-26
-4.69337e-26
-4.34393e-26
-9.0554e-25
-4.77409e-23
-1.09654e-21
-8.77277e-21
-2.7846e-20
-1.66792e-20
1.41566e-18
-8.53511e-43
-1.01152e-39
-2.05963e-37
-1.30607e-35
-3.91169e-34
-6.58194e-33
-7.00085e-32
-6.09197e-31
-5.64011e-30
-4.49833e-29
-2.09726e-28
-5.38662e-28
-8.6036e-28
-9.57039e-28
-8.24537e-28
-4.70193e-27
-5.34791e-25
-3.50719e-23
-8.57351e-22
-6.27788e-21
-1.53771e-20
2.57929e-20
6.23267e-18
-1.62538e-44
-2.85746e-41
-6.00902e-39
-3.96261e-37
-1.23913e-35
-2.181e-34
-2.49541e-33
-2.12271e-32
-1.4869e-31
-7.73916e-31
-2.52604e-30
-5.12603e-30
-6.99849e-30
-6.97182e-30
-1.29717e-29
-2.13565e-27
-3.49124e-25
-2.62255e-23
-6.43214e-22
-4.231e-21
-7.59454e-21
1.19779e-19
1.76102e-17
-7.2943e-47
-2.68574e-43
-5.65361e-41
-3.78076e-39
-1.20046e-37
-2.10657e-36
-2.2879e-35
-1.66749e-34
-8.36162e-34
-2.85098e-33
-6.63652e-33
-1.08661e-32
-1.30154e-32
-1.7293e-32
-3.09647e-30
-1.11707e-27
-2.16358e-25
-1.7438e-23
-4.08469e-22
-2.34184e-21
-2.45588e-21
2.72684e-19
3.89927e-17
-2.65033e-51
-2.47716e-46
-4.23936e-44
-2.33355e-42
-6.18693e-41
-9.14641e-40
-8.25051e-39
-4.82103e-38
-1.90265e-37
-5.22998e-37
-1.02705e-36
-1.47888e-36
-3.11393e-36
-1.64473e-33
-1.20308e-30
-5.26387e-28
-1.15133e-25
-9.6005e-24
-2.07107e-22
-9.95766e-22
-9.22471e-24
5.19257e-19
8.54363e-17
-3.07904e-58
-7.1836e-53
-1.28076e-50
-7.75792e-49
-2.34929e-47
-4.09178e-46
-4.45548e-45
-3.20109e-44
-1.57713e-43
-5.51194e-43
-1.47625e-42
-1.59916e-40
-3.17297e-37
-4.43277e-34
-3.99188e-31
-2.06456e-28
-5.00195e-26
-4.21211e-24
-8.09381e-23
-3.06086e-22
2.23535e-21
1.67733e-18
3.48153e-16
-2.33888e-67
-1.64418e-60
-3.10113e-58
-1.98593e-56
-6.31343e-55
-1.15016e-53
-1.30882e-52
-9.83124e-52
-5.22165e-51
-1.16173e-48
-5.78104e-45
-2.11393e-41
-5.43342e-38
-9.52014e-35
-1.05845e-31
-6.46358e-29
-1.71074e-26
-1.4231e-24
-2.35095e-23
-5.66995e-23
1.11866e-20
1.01999e-17
2.05982e-15
-1.08829e-78
-2.75108e-70
-6.85076e-68
-5.80774e-66
-2.42984e-64
-5.7799e-63
-1.16242e-61
-5.6867e-58
-7.25879e-54
-6.62599e-50
-4.3372e-46
-2.03864e-42
-6.78491e-39
-1.54115e-35
-2.15918e-32
-1.55207e-29
-4.41839e-27
-3.5717e-25
-4.87297e-24
1.71495e-24
3.43835e-20
3.61365e-17
8.11383e-15
-3.74954e-84
-2.00732e-78
-9.90867e-76
-1.76357e-73
-1.68046e-71
-1.34099e-68
-4.38408e-64
-1.05699e-59
-1.80539e-55
-2.22295e-51
-1.97984e-47
-1.27732e-43
-5.87864e-40
-1.81115e-36
-3.23655e-33
-2.70934e-30
-8.23217e-28
-6.70377e-26
-7.29572e-25
2.31294e-23
5.24783e-20
6.42141e-17
2.03673e-14
-9.91052e-91
-2.26449e-84
-1.62848e-81
-4.34145e-79
-4.30769e-76
-3.2874e-71
-1.91614e-66
-7.43557e-62
-1.98186e-57
-3.72808e-53
-5.0467e-49
-4.93217e-45
-3.38649e-41
-1.4637e-37
-3.32407e-34
-3.22635e-31
-1.11787e-28
-1.27978e-26
-1.20516e-25
2.06117e-23
4.6473e-20
6.91502e-17
3.36013e-14
-1.13128e-98
-3.73019e-91
-9.04066e-88
-4.88039e-83
-2.45046e-78
-8.7178e-74
-3.3745e-69
-1.72758e-64
-8.11166e-60
-2.75996e-55
-6.6266e-51
-1.11218e-46
-1.21215e-42
-7.41701e-39
-2.14204e-35
-2.62952e-32
-1.55966e-29
-4.43282e-27
-4.07804e-26
5.94854e-24
1.63265e-20
3.25226e-17
3.82377e-14
-3.08584e-101
-1.00472e-94
-2.59048e-89
-2.59927e-84
-1.40634e-79
-4.66754e-75
-1.01634e-70
-1.5398e-66
-2.35901e-62
-8.77426e-58
-4.19936e-53
-1.33003e-48
-2.36798e-44
-2.09247e-40
-8.80668e-37
-2.1837e-33
-3.56149e-30
-1.80621e-27
-1.45224e-26
1.22943e-24
4.06513e-21
1.10387e-17
2.57053e-14
-1.95938e-103
-1.63401e-96
-4.90875e-91
-5.695e-86
-3.54433e-81
-1.34796e-76
-3.35166e-72
-5.58336e-68
-6.3112e-64
-5.39991e-60
-1.24519e-55
-6.94569e-51
-2.20202e-46
-3.61256e-42
-3.89365e-38
-2.71395e-34
-7.98209e-31
-5.2999e-28
-3.41436e-27
1.40957e-25
5.47498e-22
2.05496e-18
1.064e-14
-5.83264e-107
-4.70195e-99
-1.9392e-93
-2.93937e-88
-2.32542e-83
-1.11072e-78
-3.4585e-74
-7.21555e-70
-1.02236e-65
-9.68659e-62
-6.61465e-58
-1.37598e-53
-1.14839e-48
-6.97658e-44
-2.10951e-39
-2.63499e-35
-1.12198e-31
-9.52457e-29
-4.38826e-28
8.04248e-27
3.97838e-23
2.02903e-19
2.29199e-15
-3.38183e-112
-7.13125e-103
-5.92082e-97
-1.50993e-91
-1.89717e-86
-1.40876e-81
-6.74738e-77
-2.16524e-72
-4.66867e-68
-6.71238e-64
-6.26145e-60
-4.85006e-56
-6.00339e-51
-9.66134e-46
-5.76652e-41
-1.21544e-36
-8.01575e-33
-8.96482e-30
-2.34255e-29
1.91515e-28
1.46914e-24
9.10787e-21
2.25269e-16
-2.49539e-119
-8.12905e-108
-2.02955e-101
-1.05164e-95
-2.42694e-90
-3.24244e-85
-2.77264e-80
-1.57046e-75
-5.96113e-71
-1.48794e-66
-2.37505e-62
-2.32265e-58
-5.75918e-54
-2.63843e-48
-3.93146e-43
-1.76217e-38
-2.21642e-34
-3.45243e-31
-5.2905e-31
-1.76006e-29
2.15648e-26
1.40494e-22
9.2908e-18
-1.81925e-129
-6.98832e-114
-7.76989e-107
-9.45243e-101
-4.46027e-95
-1.1611e-89
-1.92921e-84
-2.15065e-79
-1.60989e-74
-7.89142e-70
-2.44821e-65
-4.57263e-61
-4.83688e-57
-2.06553e-52
-2.13517e-46
-4.10448e-41
-1.61204e-36
-4.22831e-33
-1.21474e-31
-2.17553e-29
-1.14968e-28
4.97431e-25
2.19087e-19
-7.67722e-147
-2.26499e-121
-1.59778e-113
-5.1055e-107
-5.31299e-101
-2.94935e-95
-1.06727e-89
-2.67362e-84
-4.66229e-79
-5.54353e-74
-4.20967e-69
-1.92608e-64
-4.87009e-60
-6.46221e-56
-1.38756e-51
-5.278e-45
-1.94858e-39
-3.48543e-35
-2.44629e-32
-9.24787e-30
-1.5707e-28
4.94564e-27
4.91253e-21
-7.85441e-177
-3.75704e-131
-3.40214e-122
-3.64489e-115
-1.00311e-108
-1.39719e-102
-1.27357e-96
-8.71272e-91
-4.45426e-85
-1.64672e-79
-4.17002e-74
-6.24813e-69
-5.00194e-64
-1.91455e-59
-4.18465e-55
-4.70389e-50
-4.96819e-43
-1.43503e-37
-1.54138e-33
-1.61426e-30
-5.48447e-29
-3.30638e-28
1.39672e-25
-1.09326e-206
-6.08565e-145
-3.12592e-134
-1.70923e-126
-1.67063e-119
-7.68052e-113
-2.31716e-106
-5.3136e-100
-9.67103e-94
-1.36776e-87
-1.3407e-81
-8.41817e-76
-2.857e-70
-4.63641e-65
-3.22329e-60
-3.20855e-55
-1.16244e-48
-6.17333e-42
-3.04787e-36
-5.08627e-32
-6.31785e-30
-1.78516e-28
-6.91284e-27
0
-1.13419e-168
-1.14367e-154
-6.83332e-146
-4.62758e-138
-1.37956e-130
-2.6799e-123
-4.00973e-116
-4.8638e-109
-4.76419e-102
-3.57873e-95
-1.8072e-88
-5.35569e-82
-7.57183e-76
-4.62032e-70
-7.58651e-65
-7.42793e-57
-9.35095e-50
-2.00272e-43
-9.32182e-38
-4.29277e-33
-9.99644e-30
-6.18109e-28
0.852425
0.0707858
0.00297961
0.00240034
1
0.961547
0.467824
0.0953309
1
0.999996
0.999943
0.999469
1
1
1
0.999998
1
1
1
1
0.594277
0.842838
1
1
0.000194968
0.000337463
0.000326475
0.0111455
0.000924384
0.000169861
6.7507e-06
1.47724e-06
3.25317e-05
5.39867e-05
4.57313e-06
3.03591e-07
8.46589e-07
1.36843e-06
6.52741e-06
3.49352e-08
2.17973e-07
7.80768e-07
2.51912e-06
1.01343e-08
3.5184e-12
1.00305e-11
3.6575e-11
2.81051e-10
6.66793e-13
2.92946e-13
2.81521e-13
5.27611e-13
1.66851e-16
1.65665e-16
9.64399e-17
1.17033e-16
-4.7779e-19
-5.12888e-19
-4.89221e-19
-4.04565e-19
-1.54911e-18
-1.77721e-18
-1.8895e-18
-1.82197e-18
-2.33607e-18
-2.58525e-18
-2.58627e-18
-2.25784e-18
-1.96657e-18
-1.89352e-18
-1.44625e-18
-6.19077e-19
-7.90662e-19
-3.39e-19
2.17898e-19
4.88368e-18
1.3653e-19
2.14676e-18
1.15117e-17
4.43291e-17
6.43087e-18
2.64242e-17
1.02796e-16
3.76407e-16
5.0926e-17
1.96081e-16
7.36786e-16
2.66413e-15
2.01106e-16
7.64133e-16
2.83402e-15
1.01917e-14
5.73072e-16
2.17966e-15
8.06461e-15
2.89827e-14
1.37264e-15
5.26028e-15
1.97388e-14
6.9524e-14
3.67316e-15
1.4515e-14
5.29168e-14
1.75258e-13
1.86486e-14
7.26978e-14
2.71691e-13
1.15264e-12
1.19039e-13
4.69181e-13
1.96e-12
1.01707e-11
5.39752e-13
2.76729e-12
1.31925e-11
1.00628e-10
1.55944e-12
6.34036e-12
1.63983e-10
6.4726e-10
2.84346e-12
9.97942e-12
1.20067e-10
1.81354e-09
3.8829e-12
5.89163e-11
1.94255e-10
2.07877e-09
4.35007e-12
1.53185e-10
5.36237e-10
1.58023e-09
3.32805e-12
1.63075e-10
3.82905e-10
5.58031e-09
1.45462e-12
6.92312e-11
1.95113e-10
4.28819e-10
2.80617e-13
2.35472e-11
1.57943e-10
4.06726e-10
1.72264e-14
4.35715e-12
2.0198e-11
1.02519e-09
2.61514e-16
2.89448e-13
1.42903e-12
2.12033e-10
2.00673e-19
4.56947e-15
2.0133e-13
2.38992e-12
2.0325e-23
1.53645e-17
1.37846e-15
2.07455e-13
7.83314e-42
7.54669e-23
2.04728e-17
1.89439e-13
-2.63851e-30
-2.28448e-42
5.53664e-19
1.56694e-14
0.000335555
0.000111567
6.78148e-14
1.78489e-11
2.15062e-14
9.92344e-14
3.40713e-14
1.23063e-14
7.35503e-16
3.89634e-18
1.29112e-21
2.52431e-23
2.81401e-25
6.9641e-27
2.9941e-29
8.36415e-30
9.34913e-32
-3.3211e-36
-2.48656e-29
6.05612e-05
2.79552e-05
5.89719e-13
1.86335e-13
5.06002e-15
1.89952e-14
6.92158e-14
2.92401e-13
2.44445e-13
5.86548e-14
1.61048e-15
3.97084e-19
6.67137e-22
2.2564e-23
8.66354e-26
5.06355e-26
2.25842e-27
-3.49985e-34
-2.18482e-26
0.995547
0.380634
8.00911e-08
8.8421e-10
-5.59244e-15
-1.29139e-12
-5.27048e-12
1.24139e-13
1.46648e-12
6.24257e-13
4.27795e-13
5.96123e-14
1.37139e-16
5.44478e-19
1.26619e-22
1.16071e-22
8.97046e-24
7.32885e-26
-1.10802e-23
0.999997
0.99996
0.998791
0.931669
0.331602
0.0280189
2.64464e-08
4.96964e-07
7.91375e-08
8.47206e-10
7.08223e-12
3.87904e-13
2.44486e-13
9.63794e-15
6.33876e-18
1.33721e-19
6.71057e-21
2.81026e-22
-3.35666e-21
1
1
0.999999
0.999992
0.999935
0.999802
0.969799
0.467853
7.23579e-06
5.2042e-06
5.08977e-07
1.40008e-10
1.97731e-13
1.04847e-12
7.03019e-15
1.03853e-15
4.90588e-18
2.63654e-19
-5.98946e-19
1
1
1
0.999999
0.999999
0.999998
0.999995
0.99997
0.998688
0.70372
1.58946e-05
3.2212e-07
-9.48188e-10
2.76072e-14
6.56185e-13
5.27694e-13
5.19332e-14
4.26519e-17
-5.44694e-17
0.110077
0.404128
0.679816
0.883125
0.999999
0.999998
0.999997
0.999996
0.999984
0.99995
0.999642
0.49353
-8.09701e-08
4.89319e-08
6.54502e-10
3.47414e-11
8.87438e-12
8.70907e-14
-2.74643e-21
5.4757e-06
1.5275e-05
4.5402e-05
0.000125603
0.000295665
0.0365758
0.1966
0.614471
0.99997
0.99995
0.99991
0.999762
0.916252
2.36684e-05
7.81987e-07
1.93009e-08
1.45187e-09
5.06122e-11
6.15026e-14
1.83627e-08
2.58706e-08
6.57071e-08
1.69427e-07
4.04523e-07
1.02809e-06
8.43271e-06
3.46943e-05
0.000274691
0.107123
0.703431
0.999602
0.998994
0.99813
0.35322
9.34949e-06
5.50722e-07
6.47468e-09
2.08862e-12
2.40494e-09
7.4191e-10
5.72202e-10
3.23667e-10
4.21108e-10
1.21349e-09
1.27664e-08
8.53318e-08
6.69256e-07
6.37247e-06
7.12067e-05
0.024984
0.751797
0.997775
0.99646
0.709397
0.000104203
7.99016e-07
3.83743e-10
7.23059e-10
5.81296e-10
3.82541e-10
1.3937e-10
3.72023e-11
1.07691e-11
1.66657e-11
1.44771e-10
2.13143e-09
2.24989e-08
2.02356e-07
3.33676e-06
0.000121227
0.168028
0.994497
0.992603
0.638207
4.84794e-05
3.22078e-08
1.90859e-10
4.92728e-11
1.24743e-11
3.75913e-12
1.39096e-12
1.81317e-12
1.69305e-12
7.83636e-13
8.8471e-12
7.20943e-11
8.64581e-10
1.0485e-08
3.5872e-07
1.80608e-05
0.0247086
0.990549
0.988626
0.150009
1.61582e-06
2.84389e-13
1.41097e-13
6.32196e-14
2.17013e-14
8.09962e-15
8.37216e-15
2.42418e-14
8.65682e-14
1.86158e-13
7.91733e-13
7.58279e-12
6.72151e-11
1.07562e-09
6.31308e-08
6.83147e-06
0.147452
0.986863
0.784704
4.22012e-05
6.91781e-17
5.27047e-17
6.67916e-17
1.45072e-16
6.05597e-16
2.85083e-15
1.3039e-14
5.5592e-14
1.93787e-13
5.45536e-13
1.36977e-12
3.63146e-12
2.75356e-11
5.32871e-10
3.70437e-08
7.87539e-06
0.81144
0.97748
0.00399116
-1.11977e-19
2.69521e-18
3.40148e-17
2.58321e-16
1.49002e-15
6.45338e-15
2.09017e-14
5.83149e-14
1.81624e-13
6.39591e-13
2.35652e-12
7.29777e-12
1.9117e-11
3.68075e-11
4.03075e-10
4.70375e-08
0.190558
0.973275
0.075091
-1.17209e-18
1.79721e-18
4.30789e-17
3.59473e-16
2.10991e-15
9.8921e-15
3.80051e-14
1.19411e-13
2.95968e-13
6.71623e-13
2.09609e-12
9.43996e-12
4.9221e-11
1.08228e-10
1.23723e-10
5.61488e-10
1.30066e-07
0.964843
0.129854
-1.02307e-18
6.57746e-18
1.03983e-16
7.71594e-16
9.13314e-15
4.17306e-14
1.4534e-13
4.28319e-13
9.14282e-13
1.63339e-12
2.97821e-12
8.27337e-12
4.03324e-11
2.27912e-10
2.50681e-10
2.52347e-10
1.20466e-09
0.897231
0.180029
2.17565e-18
2.58524e-16
-9.48676e-15
-9.81753e-14
-9.93944e-14
4.15072e-15
4.02235e-13
1.51734e-12
4.40103e-12
9.39386e-12
1.55997e-11
1.5787e-11
3.09971e-11
1.4591e-10
5.63977e-10
3.34432e-10
3.61856e-10
0.557674
0.584782
4.61217e-17
7.25614e-15
-7.80949e-14
-1.12303e-12
-1.24442e-12
-1.17959e-16
4.45308e-14
3.93066e-13
1.0277e-11
3.97374e-11
2.02106e-10
3.25256e-10
1.5338e-10
6.76592e-11
1.27574e-09
3.19988e-09
7.5005e-10
0.0938314
0.826313
2.36651e-16
2.18133e-14
2.10699e-13
-2.44501e-12
-2.55203e-12
-8.11142e-12
2.733e-09
4.75473e-11
-8.68058e-12
2.17157e-11
9.21285e-11
1.08177e-10
1.30864e-10
6.76592e-11
8.6159e-10
4.85136e-09
8.88701e-10
5.00879e-08
0.816005
1.91593e-15
1.1246e-13
3.33635e-12
1.16669e-12
-1.20072e-13
5.45112e-09
0.000882634
0.000857422
2.51416e-06
5.52791e-08
2.16996e-09
4.22547e-09
6.00397e-09
2.30241e-08
1.71313e-09
4.84793e-09
1.09386e-09
1.82385e-09
0.522419
1.63345e-14
1.1311e-12
2.96063e-12
4.65409e-12
8.26085e-13
0.000832378
0.000938717
0.000117217
0.000756424
0.000364533
-3.67237e-08
2.33121e-09
2.43813e-09
2.03654e-08
2.39379e-08
2.93859e-09
6.94952e-10
0.144554
0.310447
9.83402e-14
2.13713e-12
2.12908e-12
6.85296e-08
6.30758e-10
0.000499221
0.000258927
0.000117217
0.00269689
0.00478089
5.74876e-05
4.88675e-07
5.58921e-08
1.33993e-08
1.60323e-08
1.37904e-09
6.55938e-10
0.305715
0.52523
2.21853e-13
4.01384e-12
2.3719e-12
2.34374e-08
3.97653e-07
0.00021858
0.000200456
0.00489508
0.00489508
0.00121402
0.00255432
2.63797e-06
1.46747e-06
2.70231e-07
1.25134e-09
8.10867e-10
6.55938e-10
0.503768
0.534898
4.13498e-13
7.72335e-12
6.21153e-12
3.24831e-11
5.89291e-06
3.37229e-06
0.000883287
0.00475852
2.82199e-05
1.74663e-05
0.00223063
0.00145956
3.33359e-07
6.32211e-09
9.11238e-10
6.25252e-10
0.350735
0.29846
0.307542
1.40914e-12
9.91066e-12
6.2223e-12
1.77067e-07
4.60627e-07
4.52609e-07
6.79868e-05
0.00538064
2.20161e-05
1.65324e-05
0.000133922
0.00220769
1.04357e-06
3.08713e-09
6.21076e-10
0.061322
0.415277
0.0589483
0.00372572
5.40331e-12
1.54304e-11
7.14597e-12
2.59057e-09
2.6073e-06
4.66231e-07
0.00656572
0.00237975
1.66498e-05
1.62807e-05
2.54736e-05
0.000695832
1.33399e-05
-2.6564e-09
-3.91371e-09
0.409319
0.251258
0.00115597
0.00013202
1.03451e-11
5.34008e-10
1.38638e-10
1.68579e-10
7.87054e-06
6.94339e-07
0.00656572
0.000456508
0.000627079
0.000281092
0.000548207
4.38855e-05
5.66511e-06
3.35336e-05
0.372594
0.209525
0.00155564
0.000122761
4.89593e-06
-4.98614e-11
5.2698e-08
1.16377e-07
6.46271e-08
5.65247e-06
1.25511e-05
0.00231861
0.000438133
0.000627664
0.000626336
0.000245778
9.26864e-05
0.0185062
0.321453
0.151194
0.000705773
0.000110469
0.00132084
1.45798e-05
-2.9841e-10
7.95095e-06
5.25112e-06
7.59453e-08
7.59477e-08
6.34331e-05
0.00347658
0.000227635
0.000563088
0.000141557
0.000196401
0.110471
0.290293
0.0840221
0.000272373
2.95728e-05
8.60787e-06
0.00116877
5.45695e-05
2.331e-05
0.00272285
7.2472e-07
0.0436432
0.014205
7.3262e-06
0.0034799
0.000321944
1.75264e-05
5.19701e-05
0.203425
0.262779
0.0198949
6.21003e-05
3.04989e-06
4.52199e-07
6.56833e-07
0.00107429
0.00109081
4.56016e-05
0.034523
0.0474967
0.0146839
1.74582e-06
1.0488e-06
0.00216093
8.6167e-05
1.51511e-05
0.0790062
0.226071
0.00106033
1.37088e-05
1.782e-07
6.49468e-09
8.71004e-09
5.75163e-08
0.000489636
0.000506143
8.24202e-05
0.000560838
0.00252473
8.76623e-09
1.67662e-07
7.6601e-08
0.00167193
1.50607e-05
1.50607e-05
0.153937
0.00107782
6.71736e-06
3.25899e-08
7.80412e-10
7.67663e-10
1.45454e-09
2.31522e-08
0.000366564
-4.49998e-08
3.21815e-05
0.00350542
7.31343e-07
2.69563e-09
2.69545e-09
3.48192e-06
2.71553e-05
0.0317048
0.177353
0.0261057
1.0167e-05
2.92415e-08
6.85366e-10
6.17976e-10
6.47973e-10
4.36056e-09
4.77097e-06
3.03222e-05
9.77377e-10
7.02044e-05
0.000679214
5.72979e-07
3.2618e-07
3.15415e-09
7.31718e-06
0.0495981
0.183381
0.182834
6.87367e-05
5.99899e-08
6.94407e-10
6.12145e-10
5.91598e-10
9.72196e-10
2.88005e-08
9.46448e-06
7.60247e-06
8.7514e-09
4.97988e-06
0.000169069
0.0581791
9.42495e-05
1.74995e-08
9.90711e-07
2.80739e-07
0.183381
0.00404107
5.92217e-07
9.06256e-10
7.11987e-10
6.14032e-10
5.07992e-10
8.31909e-10
3.93609e-08
4.02762e-07
8.51597e-07
3.09e-08
8.72654e-06
0.000458509
0.052467
6.83894e-06
1.99265e-08
1.15201e-06
0.0012363
0.000968801
5.33752e-06
6.37409e-09
8.85568e-10
8.54083e-10
5.16998e-10
3.51061e-10
5.49529e-10
3.33487e-09
4.73303e-08
9.14569e-08
3.35417e-09
6.61615e-06
7.65692e-06
3.58665e-06
5.73393e-08
4.60727e-10
1.22542e-07
8.70256e-07
7.70046e-06
6.93268e-08
1.27213e-09
1.20073e-09
7.88324e-10
3.62672e-10
1.92864e-10
2.21521e-10
8.61203e-10
3.92558e-09
5.32468e-09
5.20184e-10
7.45029e-08
7.42868e-06
4.09336e-07
1.16142e-10
3.23951e-10
6.82875e-10
1.60113e-08
7.71343e-08
2.32278e-09
1.27328e-09
1.25077e-09
6.14688e-10
2.50551e-10
1.03098e-10
7.78148e-11
1.99836e-10
6.49101e-10
4.17881e-10
2.68199e-10
4.8576e-07
2.59355e-06
0.0714356
3.96133e-11
2.19895e-10
2.38758e-10
6.84822e-10
1.43733e-09
1.01429e-09
1.21357e-09
8.28717e-10
3.8271e-10
1.66894e-10
5.95983e-11
2.75868e-11
3.53745e-11
1.2059e-10
2.46655e-10
1.07563e-10
1.86107e-11
2.76908e-06
0.0297563
0.0234805
3.67864e-11
1.67456e-10
4.50558e-10
6.69203e-10
8.64849e-10
6.97314e-10
3.87852e-10
2.02515e-10
8.92247e-11
2.97701e-11
8.84158e-12
6.70055e-12
1.98205e-11
6.14192e-11
2.6418e-11
-2.61258e-13
-4.98655e-11
0.358726
0.387053
0.0157744
9.93572e-11
3.32836e-10
4.55095e-10
4.56081e-10
2.84605e-10
1.62957e-10
8.46795e-11
3.41699e-11
1.04117e-11
2.50442e-12
8.05559e-13
2.83504e-12
1.17966e-11
4.99581e-12
1
1
1
1
1
1
1
1
1
1
1
1
1
1
1
1
1
1
0.99734
0.842638
0.931258
0.997981
0.997991
1
1
1
1
1
1
1
1
1
1
1
1
1
1
1
1
1
1
1
0.999998
0.994157
0.831343
0.998674
1
1
1
1
1
1
1
1
1
1
1
1
1
1
1
1
1
1
1
1
0.939699
0.831326
0.998946
1
1
1
1
1
1
1
1
1
1
1
1
1
1
1
1
1
1
1
1
1
0.839364
0.999961
1
1
1
1
1
1
1
1
1
1
1
1
1
1
1
1
1
1
1
1
1
0.999989
1
1
1
1
1
1
1
1
1
1
1
1
1
1
1
1
1
1
1
1
1
1
1
1
1
1
1
1
1
1
1
1
1
1
1
1
1
1
1
1
1
1
1
1
1
1
1
1
1
1
1
1
1
1
1
1
1
1
1
1
1
1
1
1
1
1
1
1
1
1
2.01254e-31
2.84171e-29
4.03663e-30
1.39951e-33
5.83961e-37
8.3133e-40
1.39641e-42
2.52582e-45
3.88342e-48
2.64098e-51
3.60389e-55
2.43945e-58
2.44378e-59
1.75443e-60
1.10474e-60
9.40676e-62
-1.06272e-59
-4.81461e-57
-1.19806e-62
4.69086e-26
6.18711e-24
1.03086e-24
4.19014e-28
2.20512e-31
3.05223e-34
5.52255e-37
1.10221e-39
1.8765e-42
2.97077e-45
2.77521e-48
1.74527e-51
1.14109e-56
2.57405e-57
1.62253e-58
2.54699e-58
-2.9397e-55
-2.01064e-52
-1.59325e-58
2.89939e-21
2.62031e-19
1.2695e-20
4.61405e-24
3.28023e-27
4.71045e-30
8.72469e-33
1.65217e-35
2.60265e-38
3.32049e-41
3.37604e-44
2.18972e-47
5.93771e-51
7.61684e-52
7.92222e-54
4.23209e-54
-1.28858e-51
-1.70593e-48
-2.81639e-55
8.81097e-17
5.94573e-15
1.93855e-16
2.24993e-20
1.3868e-23
1.86575e-26
3.82087e-29
6.5602e-32
7.81082e-35
1.00419e-37
9.09333e-41
1.87366e-45
4.37725e-46
8.84498e-47
1.05301e-48
2.10382e-49
-3.3125e-50
-5.86389e-45
-4.9758e-53
2.28389e-14
5.03855e-14
2.3295e-14
5.83296e-15
6.59238e-20
4.26969e-23
3.8305e-26
3.89425e-29
1.51507e-31
7.38298e-34
4.29499e-37
5.07214e-41
7.10172e-42
1.19874e-42
2.62325e-44
2.35377e-45
-4.41305e-47
-1.04272e-41
1.78416e-51
1.17952e-12
3.2998e-14
4.04721e-09
3.85368e-16
5.72126e-18
2.15042e-21
2.8932e-24
5.1102e-26
7.7987e-28
3.69556e-30
2.21895e-33
1.43434e-36
6.22987e-38
4.10772e-39
3.06974e-40
3.87195e-41
-4.27609e-46
-1.08799e-38
5.57852e-48
1.66954e-12
4.20062e-06
6.0478e-15
2.80944e-15
9.55784e-17
1.99622e-19
4.10572e-20
1.27305e-21
2.0649e-23
1.46788e-25
2.61278e-28
1.10892e-31
1.25235e-33
2.10333e-35
3.96212e-37
1.03094e-37
1.38317e-38
-7.17893e-36
3.151e-44
1.14623e-09
0.000260674
3.04417e-15
5.54507e-15
1.14933e-15
2.16477e-16
6.98816e-18
3.64792e-19
6.44572e-21
3.9802e-23
3.87008e-26
6.65579e-28
5.7419e-29
2.27553e-30
6.05155e-33
6.21495e-34
5.9064e-35
-3.12713e-33
1.19185e-40
1
1
1
1
1
1
1
1
1
1
1
1
1
1
1
1
1
1
1
1
1
1
1
1
1
1
1
1
1
1
1
1
1
1
1
1
1
1
1
1
1
1
1
1
1
1
1
1
1
1
1
1
1
1
1
0.999999
1
1
1
1
1
1
1
1
1
1
1
1
1
0.999999
0.99982
0.99988
0.999872
0.999816
0.997178
0.9854
0.958379
0.912129
0.84531
0.762352
0.672918
0.578453
0.517239
0.520733
0.610894
0.773472
0.976671
1
1
1
1
1
0.49228
0.0330777
0.0498712
0.0125188
-4.62537e-19
-1.71375e-44
1.10278e-25
-1.31838e-52
5.37836e-15
1.47479e-09
7.64758e-07
8.58425e-06
2.05559e-05
7.37265e-05
2.21248e-05
4.79426e-07
7.03429e-06
6.71005e-05
0.00552442
0.186597
0.754365
1
1
-4.75601e-14
-5.97188e-16
-3.20664e-15
-3.68573e-14
-2.08405e-13
-4.93073e-13
-3.19281e-13
-3.73703e-13
-1.50036e-18
0.000200657
0.000582491
0.000577704
0.000549493
0.00021859
1.38149e-07
1.67593e-07
1.46106e-07
1.28789e-07
6.95618e-07
1.10705e-05
0.00011016
0.0140543
0.373159
-5.35154e-14
-1.01979e-15
-1.0947e-14
-8.91793e-14
-3.72783e-13
-5.53621e-13
5.25312e-13
5.30586e-13
-5.26297e-14
0.000588827
0.000267422
3.3635e-08
3.31805e-08
3.32698e-08
7.50299e-06
6.96079e-05
1.8689e-06
6.18106e-08
2.55638e-08
3.64369e-08
4.31456e-07
2.37082e-05
0.000103763
-7.38901e-18
-4.82484e-16
-1.05793e-14
-8.42287e-14
-3.12563e-13
-1.50429e-13
8.00912e-12
7.56436e-12
5.36089e-13
0.00020843
1.46711e-05
5.4374e-08
3.31805e-08
1.79353e-07
7.24917e-05
0.00052201
0.000491777
1.95991e-07
1.31763e-08
1.07643e-08
0.000322779
0.00111426
0.000932929
-2.67827e-18
-2.95294e-16
-6.96512e-15
-5.42665e-14
-1.7743e-13
2.57096e-13
9.73797e-12
1.2521e-11
3.41728e-10
1.00657e-10
2.60534e-05
3.59962e-07
3.34472e-08
1.55707e-06
9.09095e-08
8.86964e-08
0.00052478
0.000506378
6.07088e-08
1.07692e-08
0.00118714
0.00114517
6.61045e-05
-1.29408e-18
-1.49092e-16
-3.49443e-15
-2.59233e-14
-7.18136e-14
1.92907e-13
7.47207e-12
2.26769e-12
2.71158e-08
2.26012e-08
5.37506e-12
6.45256e-08
2.24926e-07
1.30611e-09
6.57582e-07
2.1705e-06
8.44286e-07
0.000524571
0.000522135
9.14126e-08
1.77265e-06
6.12815e-07
1.59487e-06
-5.30081e-19
-6.14892e-17
-1.35964e-15
-9.29088e-15
-2.08524e-14
1.92734e-14
1.49599e-12
2.23593e-12
4.34618e-09
4.71196e-09
3.25787e-12
3.07921e-12
2.00069e-07
8.94782e-08
2.20784e-11
1.8364e-06
6.63671e-07
1.03228e-07
0.000208565
3.48559e-07
6.19921e-07
5.81618e-07
7.1118e-08
-1.72492e-19
-1.97404e-17
-4.0212e-16
-2.46058e-15
-4.33361e-15
9.82273e-16
1.12682e-13
1.05704e-12