/*--------------------------------*- C++ -*----------------------------------*\
| =========                 |                                                 |
| \\      /  F ield         | OpenFOAM: The Open Source CFD Toolbox           |
|  \\    /   O peration     | Version:  v1912                                 |
|   \\  /    A nd           | Website:  www.openfoam.com                      |
|    \\/     M anipulation  |                                                 |
\*---------------------------------------------------------------------------*/
FoamFile
{
    version     2.0;
    format      ascii;
    class       volScalarField;
    location    "0.35";
    object      p;
}
// * * * * * * * * * * * * * * * * * * * * * * * * * * * * * * * * * * * * * //

dimensions      [1 -1 -2 0 0 0 0];


internalField   nonuniform List<scalar> 
9072
(
1025.87
1059.2
1061.74
1055.94
1047.09
1039.3
1033.08
1028.1
1024.18
1021.53
1020.72
1022.55
1027.94
1037.88
1053.51
1075.63
1105.31
1141.94
1173.08
1170.29
1167.29
1125.53
1145.07
965.173
999.267
1001.74
995.982
987.364
979.791
973.678
968.7
964.734
962.026
961.152
962.909
968.214
978.004
993.16
1014.47
1042.14
1074.55
1103.95
1110.35
1124.86
1032.6
1011.46
903.067
937.913
940.244
934.609
926.532
919.442
913.543
908.561
904.487
901.642
900.625
902.233
907.363
916.922
931.709
952.221
978.123
1006.84
1031.37
1045.37
1061.48
953.42
897.657
839.656
875.214
877.369
871.994
864.72
858.292
852.663
847.654
843.413
840.359
839.125
840.501
845.364
854.587
868.888
888.553
912.899
939.252
962.098
975.916
981.032
910.267
876.905
775.076
811.313
813.299
808.361
802.073
796.379
791.012
785.933
781.47
778.145
776.623
777.682
782.185
790.977
804.709
823.53
846.585
871.302
893.149
907.357
909.958
880.585
898.867
709.559
746.434
748.25
743.937
738.714
733.717
728.551
723.35
718.615
714.965
713.082
713.739
717.784
726.048
739.153
757.176
779.217
802.898
824.359
839.559
845.684
845.416
894.471
643.408
680.574
682.455
678.907
674.708
670.291
665.232
659.853
654.806
650.778
648.463
648.622
652.099
659.735
672.156
689.436
710.72
733.853
755.477
772.167
782.538
793.323
838.943
576.959
614.076
616.104
613.384
610.068
606.06
601.004
595.396
589.999
585.539
582.711
582.263
585.044
591.934
603.604
620.186
640.933
663.926
686.162
704.604
718.095
730.449
751.177
279.869
279.858
279.787
279.698
279.596
279.489
279.383
279.284
279.193
279.11
279.037
278.971
278.914
278.865
278.824
278.791
278.765
278.748
278.738
279.814
279.801
279.73
279.64
279.538
279.43
279.324
279.224
279.133
279.05
278.977
278.911
278.854
278.805
278.763
278.73
278.704
278.686
278.677
279.759
279.745
279.674
279.584
279.48
279.37
279.263
279.163
279.071
278.989
278.915
278.85
278.792
278.742
278.7
278.666
278.64
278.622
278.612
279.702
279.689
279.621
279.531
279.423
279.309
279.2
279.099
279.008
278.926
278.852
278.786
278.728
278.678
278.636
278.601
278.574
278.556
278.546
279.637
279.629
279.571
279.479
279.366
279.247
279.136
279.035
278.943
278.861
278.787
278.721
278.663
278.612
278.569
278.533
278.506
278.487
278.476
279.546
279.552
279.525
279.432
279.309
279.184
279.069
278.968
278.877
278.795
278.721
278.655
278.596
278.544
278.5
278.463
278.435
278.415
278.404
279.417
279.457
279.49
279.389
279.251
279.118
279
278.899
278.809
278.727
278.653
278.587
278.527
278.474
278.428
278.391
278.361
278.341
278.329
279.219
279.42
279.455
279.348
279.191
279.047
278.928
278.828
278.739
278.658
278.584
278.517
278.457
278.402
278.355
278.315
278.285
278.263
278.251
454.069
528.195
530.349
528.761
526.359
522.62
517.42
511.461
505.576
500.494
496.893
495.498
497.181
502.908
513.462
529.147
549.425
572.689
596.196
616.983
633.014
641.559
614.126
312.644
385.178
387.025
386.437
384.555
380.601
374.844
368.094
361.113
354.585
349.162
345.468
344.418
347.426
355.778
369.637
389.363
414.453
441.575
466.797
486.46
492.945
464.764
177.176
238.982
242.77
241.917
239.149
234.331
227.932
220.415
212.29
204.232
196.913
190.841
186.388
185.501
186.76
192.56
214.791
243.341
276.157
307.843
335.671
350.251
344.093
73.269
99.3294
101.347
95.5572
89.9501
83.5685
76.9533
68.9697
59.927
50.8319
43.3057
36.2447
26.5828
22.7124
21.6719
22.9087
35.2593
71.1416
112.472
149.994
185.998
208.954
221.802
17.1472
6.35103
6.36489
5.42318
4.85791
4.47887
4.58713
4.69181
4.82306
5.0194
5.27104
5.47329
5.51561
5.45917
5.43172
5.31755
5.08676
5.1496
5.54825
7.18115
20.5714
73.0368
110.719
4.2511
4.28893
4.33657
4.37287
4.40348
4.40668
4.4564
4.53674
4.63905
4.77678
4.96617
5.03907
5.05758
5.04917
4.98909
4.9172
4.8016
4.76617
4.86551
4.994
5.18857
5.3157
8.61723
4.04364
4.14678
4.16285
4.18597
4.2138
4.2435
4.28964
4.35199
4.41582
4.46626
4.58503
4.63922
4.70194
4.72041
4.69616
4.64153
4.52224
4.48485
4.61815
4.79947
4.96565
5.13682
5.31138
3.83581
3.95402
3.97423
3.99626
4.02484
4.05944
4.10337
4.15552
4.2052
4.22307
4.31418
4.38626
4.43163
4.44619
4.42172
4.33484
4.19429
4.1831
4.35603
4.61123
4.82525
5.06694
5.25908
3.63963
3.75587
3.77591
3.79949
3.82822
3.86307
3.9047
3.95193
4.00048
4.04139
4.09388
4.15062
4.19185
4.21082
4.19763
4.13105
3.99533
3.95126
4.17547
4.43504
4.60608
4.86669
5.14133
3.44245
3.55403
3.57282
3.5955
3.62355
3.65735
3.69683
3.74101
3.78772
3.83441
3.88282
3.93204
3.97443
4.00475
4.01794
4.00604
3.95535
3.89337
4.0413
4.36956
4.61025
4.82244
5.0518
3.23711
3.34825
3.36365
3.38458
3.41139
3.44385
3.4816
3.52385
3.56941
3.61711
3.66661
3.71712
3.76606
3.81163
3.85309
3.89148
3.93182
3.98548
4.10296
4.35397
4.60811
4.80857
4.99394
3.02113
3.13475
3.14732
3.16655
3.19201
3.22323
3.25976
3.30099
3.34621
3.39484
3.44663
3.50149
3.5591
3.61976
3.68521
3.75954
3.85078
3.97257
4.14236
4.35469
4.55296
4.73033
4.89847
2.79475
2.91226
2.92324
2.94119
2.96553
2.99579
3.03157
3.07244
3.11801
3.16809
3.22283
3.2827
3.34845
3.42145
3.5043
3.60122
3.71831
3.86239
4.03605
4.22679
4.412
4.58416
4.75184
2.55908
2.68097
2.69128
2.70843
2.732
2.76164
2.79703
2.83791
2.88417
2.93591
2.99356
3.05794
3.13022
3.21213
3.30614
3.4155
3.5437
3.69303
3.86148
4.04032
4.21845
4.39183
4.56395
2.31516
2.44139
2.45153
2.46827
2.49137
2.5206
2.55578
2.59683
2.6438
2.69703
2.75711
2.82496
2.90187
2.98946
3.08976
3.20491
3.33665
3.48517
3.64782
3.81901
3.99278
4.16661
4.34261
2.06372
2.19404
2.2042
2.22071
2.24349
2.27241
2.30741
2.34855
2.39605
2.45036
2.51212
2.58226
2.66195
2.75257
2.85561
2.97242
3.10373
3.249
3.40597
3.571
3.74071
3.91368
4.0912
1.80521
1.93935
1.94952
1.96582
1.98826
2.01682
2.05154
2.0926
2.14031
2.19515
2.25778
2.32901
2.40986
2.50139
2.60465
2.72046
2.849
2.98963
3.14062
3.29958
3.4645
3.63465
3.81103
1.53977
1.67758
1.68767
1.70368
1.72569
1.75378
1.78808
1.82881
1.87634
1.93112
1.99375
2.06495
2.14552
2.23626
2.33786
2.45075
2.57492
2.70975
2.85403
3.00621
3.16506
3.33022
3.50257
1.26728
1.40873
1.41867
1.43434
1.45586
1.48338
1.51708
1.5572
1.6041
1.65819
1.71999
1.79007
1.86907
1.95755
2.05595
2.16447
2.28295
2.41091
2.5475
2.69173
2.84286
3.00073
3.16603
0.987524
1.13265
1.1424
1.1577
1.1787
1.20556
1.23846
1.27765
1.32344
1.37621
1.43635
1.50433
1.58061
1.66557
1.7595
1.8624
1.9741
2.09416
2.222
2.35694
2.49849
2.64652
2.80149
0.700551
0.849209
0.858749
0.873635
0.894021
0.920057
0.95192
0.98983
1.03405
1.08489
1.14265
1.20768
1.28029
1.36074
1.44913
1.54541
1.64931
1.7605
1.87848
2.00268
2.13262
2.26803
2.40907
0.406631
0.558595
0.567824
0.582179
0.601797
0.626807
0.657359
0.693635
0.735845
0.784218
0.838991
0.900387
0.968591
1.04371
1.12574
1.21449
1.3097
1.41101
1.51791
1.62976
1.74588
1.86571
1.98909
0.10613
0.261101
0.2699
0.283572
0.302234
0.32599
0.354959
0.389274
0.42908
0.474544
0.525818
0.583016
0.646199
0.715326
0.790255
0.870721
0.95637
1.04677
1.14125
1.23894
1.33884
1.43998
1.54198
-0.200573
-0.0428484
-0.0345925
-0.0217409
-0.00420642
0.0180839
0.0452198
0.0772815
0.114354
0.156533
0.203882
0.256412
0.314051
0.376614
0.44383
0.51531
0.590585
0.669032
0.749701
0.831317
0.912379
0.991485
1.06826
-0.513131
-0.352868
-0.345246
-0.33333
-0.317064
-0.29641
-0.271319
-0.241754
-0.207689
-0.169104
-0.126024
-0.0785453
-0.026875
0.028665
0.0876528
0.14957
0.213768
0.279306
0.344778
0.408309
0.467707
0.521129
0.56818
-0.831205
-0.66859
-0.661673
-0.650779
-0.63589
-0.617007
-0.59412
-0.567238
-0.536394
-0.501636
-0.463081
-0.420939
-0.37554
-0.327357
-0.276951
-0.225
-0.17242
-0.120607
-0.0716265
-0.0281693
0.00670793
0.0303946
0.041686
-1.15445
-0.98966
-0.983485
-0.973664
-0.960229
-0.943214
-0.922643
-0.898575
-0.871093
-0.840314
-0.806448
-0.769809
-0.730854
-0.690192
-0.648528
-0.606726
-0.566076
-0.52858
-0.497091
-0.475298
-0.467509
-0.478008
-0.510537
-1.48247
-1.31571
-1.31026
-1.30154
-1.2896
-1.27451
-1.25633
-1.23516
-1.21111
-1.18438
-1.15526
-1.12417
-1.09168
-1.05852
-1.02552
-0.993804
-0.965097
-0.942066
-0.928402
-0.928969
-0.949929
-0.998629
-1.08414
-1.81476
-1.64628
-1.64152
-1.6339
-1.62349
-1.61036
-1.5946
-1.57634
-1.55575
-1.53307
-1.50866
-1.48303
-1.45685
-1.43096
-1.40634
-1.38435
-1.36717
-1.35806
-1.36148
-1.38358
-1.43287
-1.52112
-1.66614
-2.15079
-1.98086
-1.97675
-1.97023
-1.96134
-1.95017
-1.93683
-1.92146
-1.90428
-1.88557
-1.86574
-1.84538
-1.82523
-1.8062
-1.78942
-1.77646
-1.76984
-1.7732
-1.79158
-1.83223
-1.90591
-2.02926
-2.23121
-2.49007
-2.31889
-2.31542
-2.30997
-2.30259
-2.29336
-2.28239
-2.26985
-2.25599
-2.24111
-2.22566
-2.21027
-2.19572
-2.183
-2.17331
-2.16835
-2.17074
-2.18424
-2.2141
-2.26804
-2.35793
-2.50344
-2.74137
-2.83205
-2.65984
-2.65697
-2.6526
-2.6467
-2.63937
-2.63072
-2.62093
-2.61026
-2.59903
-2.5877
-2.57691
-2.56747
-2.56037
-2.55684
-2.55856
-2.56801
-2.58877
-2.62581
-2.68643
-2.78166
-2.92961
-3.16424
-3.1761
-3.00313
-3.00089
-2.99759
-2.99316
-2.98768
-2.98128
-2.97414
-2.96651
-2.95872
-2.95122
-2.94464
-2.93977
-2.93757
-2.9392
-2.94615
-2.96058
-2.98563
-3.02563
-3.08658
-3.17692
-3.3096
-3.50639
-3.52159
-3.3482
-3.34663
-3.34442
-3.34143
-3.33775
-3.33353
-3.32893
-3.32419
-3.31962
-3.31567
-3.31291
-3.31208
-3.31406
-3.31986
-3.33065
-3.34817
-3.37494
-3.41439
-3.4709
-3.55
-3.65892
-3.80731
-3.86797
-3.69451
-3.6937
-3.69257
-3.691
-3.68908
-3.68697
-3.6848
-3.68281
-3.68128
-3.68061
-3.68131
-3.68406
-3.68958
-3.69867
-3.71215
-3.73125
-3.75779
-3.79425
-3.84359
-3.90903
-3.9939
-4.10166
-4.21487
-4.0416
-4.0416
-4.04159
-4.04141
-4.04122
-4.04114
-4.04133
-4.04196
-4.0433
-4.04569
-4.04958
-4.05552
-4.06408
-4.07577
-4.09111
-4.11078
-4.13588
-4.16799
-4.20898
-4.26036
-4.32327
-4.39928
-4.56195
-4.38912
-4.38997
-4.39106
-4.39226
-4.39376
-4.39567
-4.39813
-4.40129
-4.40538
-4.41068
-4.41755
-4.42643
-4.43767
-4.45155
-4.46827
-4.488
-4.51114
-4.5385
-4.5709
-4.60849
-4.65105
-4.69877
-4.909
-4.73675
-4.73848
-4.74065
-4.74322
-4.74639
-4.75025
-4.75493
-4.76057
-4.76734
-4.77545
-4.78519
-4.79686
-4.81063
-4.82656
-4.84455
-4.86434
-4.88571
-4.90873
-4.93324
-4.95821
-4.98196
-5.00209
-5.25488
-5.08385
-5.08644
-5.08969
-5.09361
-5.09842
-5.10422
-5.11109
-5.11915
-5.12854
-5.13943
-5.15199
-5.16641
-5.1827
-5.20074
-5.22018
-5.24042
-5.26078
-5.28066
-5.29906
-5.31391
-5.32196
-5.31749
-5.6021
-5.43068
-5.43421
-5.43851
-5.44379
-5.45025
-5.45797
-5.46704
-5.47755
-5.48961
-5.50332
-5.5188
-5.53609
-5.55512
-5.57561
-5.59704
-5.6186
-5.63929
-5.65804
-5.67315
-5.68181
-5.67953
-5.65914
-5.93943
-5.77692
-5.78142
-5.78675
-5.79339
-5.80149
-5.81113
-5.8224
-5.83537
-5.85014
-5.86674
-5.88522
-5.90555
-5.92757
-5.95093
-5.97502
-5.99893
-6.02156
-6.04146
-6.05649
-6.0635
-6.05779
-6.03201
-6.285
-6.11235
-6.11781
-6.12414
-6.13202
-6.14161
-6.153
-6.1663
-6.18157
-6.19887
-6.21823
-6.23962
-6.26294
-6.288
-6.31443
-6.34165
-6.3688
-6.39469
-6.41767
-6.43545
-6.44497
-6.44211
-6.42098
364.463
308.385
280.377
279.693
370.845
277.363
276.551
273.223
314.379
284.259
246.201
201.823
219.135
213.254
207.502
200.701
123.394
125.07
128.789
131.761
23.0895
33.3298
49.087
59.4902
5.42089
5.50689
5.65762
5.9038
5.40001
5.51116
5.57802
5.65137
5.32314
5.43245
5.53169
5.6228
5.23633
5.33897
5.43783
5.53271
5.15443
5.24491
5.33664
5.42963
5.04829
5.13371
5.22119
5.31185
4.90181
4.987
5.07459
5.16539
4.71807
4.80509
4.89456
4.98699
4.50079
4.58991
4.68149
4.77578
4.25177
4.34226
4.43521
4.53063
3.97147
4.06195
4.15484
4.24989
3.65996
3.74862
3.83944
3.93193
3.31717
3.40194
3.48825
3.57568
2.94283
3.0214
3.10083
3.18111
2.53676
2.60689
2.67763
2.74941
2.09941
2.15924
2.22004
2.28219
1.63157
1.67958
1.72902
1.77986
1.13363
1.16792
1.20367
1.24046
0.604439
0.621773
0.639941
0.658662
0.040982
0.0358329
0.0303059
0.0243942
-0.5602
-0.596762
-0.636395
-0.679478
-1.19906
-1.2808
-1.3727
-1.47651
-1.8634
-2.00853
-2.18231
-2.39342
-2.51518
-2.73247
-3.0087
-3.36899
-3.08514
-3.35823
-3.72557
-4.23904
-3.49477
-3.75229
-4.09999
-4.60105
-3.75993
-3.94
-4.16273
-4.45128
-3.97605
-4.08148
-4.19588
-4.32232
-4.21481
-4.28225
-4.35149
-4.42562
-4.47915
-4.53056
-4.59146
-4.6783
-4.74733
-4.77913
-4.82015
-4.87755
-5.01506
-5.02059
-5.02666
-5.03237
-5.29589
-5.27434
-5.24294
-5.20299
-5.61704
-5.58111
-5.53109
-5.46102
-5.98408
-5.94486
-5.89442
-5.8321
-6.3804
-6.34693
-6.30204
-6.24037
279.015
279.452
279.382
279.289
279.109
278.95
278.829
278.734
278.647
278.567
278.493
278.426
278.364
278.307
278.257
278.215
278.182
278.159
278.146
273.939
278.15
279.308
279.231
278.952
278.747
278.645
278.571
278.489
278.41
278.336
278.267
278.203
278.142
278.086
278.037
277.999
277.973
277.959
184.154
233.546
279.461
279.205
278.742
278.375
278.445
278.423
278.322
278.245
278.172
278.101
278.036
277.968
277.902
277.845
277.8
277.769
277.752
191.951
185.317
214.125
200.467
266.841
276.835
278.522
278.413
278.07
278.066
277.999
277.924
277.867
277.789
277.706
277.634
277.579
277.543
277.524
136.391
148.453
160.925
164.014
164.914
183.358
212.601
262.826
276.886
278.075
277.787
277.721
277.718
277.609
277.492
277.4
277.333
277.289
277.267
70.5668
90.9925
104.097
115.54
126.207
137.631
153.984
176.772
200.011
251.583
276.174
277.504
277.7
277.421
277.25
277.135
277.051
276.999
276.975
8.80874
18.6584
28.24
39.0616
57.4714
76.2905
93.0078
116.766
134.571
162.291
217.146
266.255
277.932
277.103
276.933
276.83
276.722
276.657
276.636
5.75611
6.00016
6.25323
6.54239
6.71746
7.99241
13.7545
27.1232
55.7908
96.4179
135.742
174.656
231.528
275.547
276.743
276.503
276.319
276.234
276.234
5.73529
5.95506
6.20441
6.46718
6.72746
6.98518
7.2745
7.51868
7.9165
11.2613
34.6648
90.4817
141.513
200.65
270.325
275.791
275.714
275.677
275.745
5.65705
5.88474
6.13223
6.39193
6.65683
6.92406
7.20816
7.51538
7.86976
8.22674
8.52907
9.75065
38.3431
107.275
160.864
252.766
274.839
274.643
275.161
5.556
5.78932
6.03848
6.30241
6.57971
6.86849
7.16849
7.48382
7.84041
8.221
8.61247
8.98079
9.34524
14.2744
80.0337
163.801
256.841
272.986
274.607
5.43716
5.6724
5.92649
6.19887
6.48971
6.79886
7.12694
7.47333
7.83951
8.22751
8.63337
9.05177
9.45921
9.8384
11.2876
79.3372
191.202
276.077
273.629
5.29146
5.53058
5.79151
6.07412
6.37908
6.70684
7.05855
7.43416
7.8301
8.24067
8.66433
9.10289
9.5562
9.99982
10.3995
12.7653
118.633
257.143
272.726
5.11532
5.35993
5.62845
5.92152
6.24057
6.58726
6.96316
7.36633
7.79086
8.23157
8.68637
9.15477
9.63659
10.1295
10.6073
11.0801
22.9686
211.413
277.036
4.9064
5.15637
5.43175
5.73467
6.06817
6.4356
6.8377
7.26919
7.72216
8.19282
8.68116
9.18689
9.70576
10.2289
10.7391
11.2478
11.8804
170.539
289.115
4.66235
4.91562
5.19584
5.50743
5.85592
6.246
6.67576
7.13537
7.61624
8.11735
8.63976
9.18339
9.74519
10.3144
10.8803
11.4213
11.6949
141.364
332.137
4.38061
4.63372
4.91531
5.23306
5.59587
6.00922
6.46726
6.95364
7.46001
7.98997
8.54553
9.12981
9.74266
10.3767
11.0241
11.6623
12.236
73.0708
340.269
4.05881
4.30688
4.58497
4.90458
5.27747
5.71272
6.19997
6.70974
7.2356
7.79106
8.37818
9.00592
9.67665
10.3892
11.1389
11.8981
12.6596
14.393
353.889
3.6958
3.93343
4.2015
4.51414
4.88882
5.34236
5.86185
6.38421
6.91572
7.49752
8.11265
8.78216
9.51649
10.3214
11.1985
12.1498
13.1712
13.2733
736.646
3.29211
3.51361
3.76376
4.0576
4.41884
4.88269
5.42719
5.90025
6.41942
7.05233
7.6763
8.39278
9.21391
10.1333
11.1538
12.3146
13.7018
15.9272
979.801
2.84933
3.04905
3.27348
3.53543
3.85214
4.28083
4.56803
4.80377
5.53984
6.29674
6.85242
7.68186
8.66526
9.74927
10.9158
12.2278
13.8869
15.1979
916.512
2.36891
2.54201
2.73575
2.95699
3.20141
3.48286
3.47869
3.68812
4.92984
5.67491
5.53131
6.46882
7.74865
9.07549
10.3952
11.7404
13.3827
16.3123
1054.29
1.85075
1.99396
2.15705
2.34355
2.54811
2.72216
2.99157
3.26281
2.87011
3.22575
3.81696
4.92664
6.53808
8.12895
9.62068
10.9525
12.2183
13.1624
1516.88
1.29229
1.40298
1.53883
1.70487
1.89247
2.04734
2.20487
2.03475
-1.2091
-1.73015
0.564128
3.54663
5.32555
7.08585
8.70915
10.0951
12.119
-72.3438
369.523
0.686768
0.759903
0.873242
1.04121
1.24993
1.4069
1.18555
-1.12691
-2.87794
-2.92894
-1.92807
2.13075
4.31871
6.09494
7.672
9.23065
-4.38389
-95.4328
-312.055
0.0197228
0.0422571
0.133655
0.337532
0.64849
0.99398
1.47163
-2.45622
-4.06567
-4.4575
-4.12288
-1.25064
3.13888
5.17733
6.51381
6.99121
14.6495
34.5719
-9.71166
-0.736278
-0.799375
-0.752463
-0.475452
-0.0220316
0.400307
0.655008
-3.20139
-4.88059
-5.13476
-4.79401
-1.77685
2.22829
4.49085
7.07801
9.01
43.8573
-14.2206
-12.3857
-1.6255
-1.886
-1.98236
-1.57509
-1.03975
-0.717712
-0.862801
-2.29779
-3.82455
-4.13034
-3.30092
-0.513271
2.48091
3.7561
8.4536
-8.1923
-8.8521
-17.8363
-32.3488
-2.72909
-3.54481
-3.86279
-2.93838
-1.99435
-1.11514
-0.852077
-0.703541
-1.92515
-2.6786
-2.55328
0.419516
4.31584
-13.9865
-18.7742
-18.2504
-15.3551
-24.6136
-45.326
-4.02835
-5.80678
-5.73722
-3.84508
-2.14457
-1.82384
-1.03538
0.290024
-0.559708
-1.87115
-5.13118
-0.945406
-1.64818
-20.6575
-23.3797
-22.0478
-21.2284
-23.2233
-28.434
-5.29507
-6.88892
-5.88865
-4.09416
-2.40209
-2.19333
-1.5363
-0.263624
-0.215279
-0.959427
-4.01269
-13.092
-22.1236
-24.2501
-25.9435
-27.3725
-27.6374
-25.9388
-5.56523
-5.58402
-8.63627
-5.18108
-2.976
-3.19077
-2.73775
-1.97324
-1.3727
-0.756249
-0.42011
-12.6693
-17.2162
-20.7133
-24.1104
-27.7169
-31.239
-32.8985
-30.1605
-0.28696
-4.83154
-5.24162
-4.06612
-3.70391
-4.00748
-3.84341
-2.44137
-1.41069
-0.43915
-8.3143
-14.8589
-16.5458
-19.3419
-22.8869
-27.5106
-33.0045
-35.7462
-30.262
-8.76197
-4.43723
-4.60211
-4.9266
-4.84618
-5.11956
-5.22085
-4.82965
-2.45751
-5.85537
-13.5247
-13.0469
-15.0848
-17.4884
-20.6135
-25.0759
-30.4126
-31.6878
-25.5615
-18.2168
-4.43982
-4.23682
-5.66434
-6.18156
-6.22178
-6.4647
-5.05803
-18.9325
-7.69786
-9.82738
-11.7215
-13.46
-15.3887
-17.6713
-20.5529
-23.0581
-22.107
-20.5175
-21.0776
-4.80906
-4.64437
-7.47873
-7.71953
-6.68701
-7.50916
-7.53145
-13.4864
-8.71282
-9.3582
-10.626
-12.002
-13.3664
-14.6895
-15.799
-15.8371
-14.3244
-15.1537
-17.2431
-5.05712
-5.30214
-5.46682
-5.36124
-5.95895
-7.33687
-8.90123
-9.97038
-8.2491
-8.89691
-9.80581
-10.7477
-11.5874
-12.1845
-12.2808
-11.4688
-10.3168
-11.2154
-12.652
-5.1105
-5.16995
-4.89752
-5.15463
-5.58504
-6.54536
-7.78663
-8.30906
-8.15993
-8.49303
-9.05712
-9.63945
-10.0976
-10.2858
-10.0262
-9.21674
-8.47332
-8.96727
-9.74522
-5.10955
-5.06861
-4.89157
-5.4542
-5.71017
-6.24143
-6.92481
-7.36799
-7.61205
-7.93005
-8.30196
-8.64854
-8.87465
-8.87937
-8.57153
-7.9659
-7.48425
-7.7072
-8.11567
-5.30415
-4.89212
-3.71263
-5.82251
-6.06599
-6.25831
-6.57678
-6.86316
-7.09674
-7.33247
-7.56947
-7.7656
-7.86362
-7.80607
-7.55431
-7.14346
-6.818
-6.89679
-7.13578
-5.71821
-5.50909
-4.97636
-6.6679
-6.54204
-6.30532
-6.33536
-6.45546
-6.5946
-6.73865
-6.87334
-6.9729
-7.00587
-6.94498
-6.77663
-6.52588
-6.31537
-6.32834
-6.47059
-6.11777
-5.49375
-6.55657
-251.902
-6.76774
-6.17812
-6.03838
-6.0496
-6.0992
-6.15622
-6.20865
-6.24413
-6.2494
-6.2149
-6.13766
-6.02686
-5.92247
-5.91171
-5.98782
1056.53
1061.47
1059.68
1051.52
1042.99
1036.01
1030.45
1026
1022.67
1020.85
1021.25
1024.74
1032.27
1044.93
1063.69
1089.47
1123.04
1159.98
1176.1
1169.08
1156.41
1097.87
1193.83
996.541
1001.49
999.669
991.664
983.381
976.573
971.063
966.584
963.193
961.313
961.646
965.059
972.492
984.863
1003.01
1027.54
1058.02
1090.53
1110.84
1113.06
1116.23
974.76
1100.98
935.125
940.056
938.162
930.54
922.819
916.365
910.946
906.398
902.879
900.859
901.047
904.3
911.535
923.622
941.241
964.581
992.447
1020.23
1039.44
1052.32
1051.87
878.963
1002.31
872.341
877.255
875.315
868.306
861.384
855.397
850.079
845.417
841.702
839.468
839.433
842.44
849.38
861.071
878.06
900.246
926.105
951.542
970.222
979.879
965.938
860.168
965.022
808.324
813.255
811.343
805.158
799.163
793.668
788.422
783.595
779.627
777.112
776.777
779.449
785.997
797.2
813.505
834.64
858.98
882.912
901.434
910.501
902.63
867.976
969.948
743.17
748.248
746.486
741.278
736.219
731.16
725.928
720.887
716.613
713.756
713.042
715.284
721.342
731.973
747.577
767.803
791.068
814.179
832.945
843.935
845.963
857.417
949.487
677.273
682.404
680.972
676.791
672.571
667.836
662.544
657.245
652.622
649.361
648.182
649.891
655.349
665.326
680.216
699.679
722.245
745.087
764.608
778.118
786.873
809.299
878.737
610.749
615.94
614.962
611.757
608.197
603.645
598.222
592.624
587.609
583.877
582.139
583.193
587.925
597.146
611.304
630.128
652.318
675.347
696.005
711.914
723.973
740.044
765.219
279.883
279.825
279.744
279.648
279.543
279.436
279.333
279.237
279.151
279.072
279.003
278.942
278.889
278.844
278.806
278.777
278.755
278.742
278.735
279.827
279.768
279.687
279.59
279.484
279.376
279.273
279.177
279.09
279.012
278.943
278.882
278.828
278.783
278.745
278.716
278.694
278.68
278.674
279.771
279.713
279.632
279.533
279.425
279.316
279.212
279.116
279.029
278.951
278.881
278.82
278.766
278.72
278.683
278.652
278.63
278.616
278.61
279.716
279.658
279.579
279.478
279.366
279.254
279.149
279.053
278.966
278.888
278.818
278.756
278.702
278.656
278.617
278.587
278.564
278.55
278.543
279.654
279.605
279.529
279.424
279.306
279.19
279.084
278.988
278.901
278.823
278.753
278.691
278.637
278.589
278.55
278.519
278.495
278.481
278.474
279.578
279.549
279.486
279.372
279.245
279.125
279.017
278.921
278.835
278.757
278.687
278.624
278.569
278.521
278.48
278.448
278.424
278.409
278.401
279.483
279.499
279.453
279.321
279.183
279.057
278.948
278.852
278.767
278.689
278.619
278.556
278.5
278.45
278.409
278.375
278.35
278.334
278.326
279.41
279.505
279.423
279.269
279.117
278.984
278.876
278.782
278.697
278.62
278.55
278.486
278.429
278.378
278.334
278.299
278.273
278.256
278.248
524.922
530.029
529.716
527.673
524.693
520.169
514.481
508.461
502.893
498.465
495.869
495.894
499.482
507.548
520.675
538.783
560.834
584.608
607.085
625.683
638.674
638.155
557.46
382.707
386.74
386.839
385.725
382.844
377.899
371.542
364.589
357.75
351.698
347.054
344.535
345.325
350.875
362.097
378.681
401.411
428.022
454.631
477.614
492.059
486
432.264
238.548
241.608
242.59
240.793
236.972
231.299
224.285
216.389
208.207
200.445
193.694
188.39
185.502
186.016
188.061
203.167
228.08
259.698
292.217
322.738
345.167
350.621
332.533
108.039
99.2238
98.6931
92.7762
86.7153
80.4452
73.1258
64.5515
55.2453
46.9106
39.7681
32.923
23.9873
21.9574
22.1007
26.4491
51.118
92.7392
130.51
169.791
198.554
217.214
222.344
18.8517
5.49754
6.04927
5.08189
4.53692
4.53234
4.63822
4.75207
4.91025
5.14681
5.38159
5.54061
5.46933
5.45108
5.39498
5.20781
5.05529
5.26371
6.0982
11.1039
43.3361
96.01
120.098
4.37057
4.31476
4.35054
4.39332
4.40253
4.42604
4.49382
4.58528
4.6907
4.87814
5.01352
5.05338
5.05758
5.02428
4.95377
4.86733
4.76675
4.80636
4.93005
5.08777
5.20039
5.86504
16.4946
4.14312
4.15095
4.17186
4.2002
4.22742
4.26412
4.31928
4.38646
4.43098
4.53909
4.60768
4.67384
4.71742
4.71249
4.674
4.58575
4.4801
4.53672
4.71027
4.88134
5.05158
5.21867
5.39387
3.93996
3.96167
3.98392
4.00995
4.04116
4.08016
4.12875
4.18217
4.21759
4.26291
4.35492
4.41196
4.44347
4.43909
4.38706
4.26748
4.15891
4.25029
4.48304
4.72493
4.9404
5.1779
5.32746
3.73899
3.76487
3.78718
3.81314
3.84482
3.88305
3.92782
3.97647
4.0222
4.06468
4.12313
4.17378
4.20461
4.2091
4.17309
4.06883
3.94086
4.0416
4.30732
4.5357
4.70574
5.02998
5.23796
3.54448
3.56331
3.58351
3.60882
3.63972
3.67642
3.71845
3.76421
3.8112
3.85805
3.90783
3.95453
3.99135
4.01389
4.01581
3.98694
3.91654
3.92567
4.20708
4.50409
4.70848
4.94178
5.15689
3.3437
3.35536
3.37336
3.39727
3.42692
3.4621
3.50223
3.5463
3.59304
3.64162
3.6919
3.74194
3.78933
3.83287
3.87248
3.91095
3.95614
4.02683
4.21862
4.48702
4.71308
4.90201
5.08524
3.13241
3.14016
3.15612
3.17854
3.20693
3.24086
3.27983
3.32315
3.37012
3.42034
3.47369
3.52996
3.58898
3.6517
3.72088
3.80234
3.90678
4.05046
4.24843
4.45654
4.64385
4.81453
4.98342
2.91057
2.91682
2.93138
2.95259
2.97995
3.01302
3.0514
3.09465
3.14248
3.19485
3.25208
3.31478
3.38391
3.46142
3.55066
3.65681
3.78662
3.94579
4.13097
4.32151
4.49925
4.66791
4.83707
2.67923
2.68523
2.69902
2.71944
2.74608
2.77863
2.81679
2.86037
2.90933
2.96396
3.02485
3.093
3.16984
3.25744
3.35868
3.47704
3.61571
3.77525
3.95038
4.12992
4.30562
4.47757
4.65176
2.43938
2.44561
2.45908
2.47904
2.50524
2.53746
2.57557
2.61956
2.66961
2.72617
2.78999
2.86219
2.94421
3.03789
3.14535
3.26864
3.4089
3.56502
3.73276
3.90584
4.07965
4.25409
4.43278
2.19176
2.19832
2.21166
2.23133
2.25719
2.28915
2.3272
2.37148
2.42232
2.48026
2.54608
2.62083
2.7058
2.80244
2.91223
3.03626
3.17472
3.32623
3.48772
3.65542
3.82676
4.0017
4.18267
1.93688
1.94367
1.9569
1.97628
2.00177
2.0334
2.07126
2.1156
2.1668
2.22545
2.29226
2.36817
2.45422
2.5515
2.66096
2.78315
2.91789
3.06397
3.21925
3.38139
3.5489
3.72193
3.90235
1.675
1.68189
1.69492
1.71393
1.73897
1.77014
1.80762
1.8517
1.90278
1.96141
2.02823
2.10401
2.18957
2.28567
2.39289
2.51145
2.64107
2.7808
2.92922
3.08485
3.24682
3.4154
3.59212
1.40613
1.413
1.42578
1.44436
1.46886
1.49944
1.53632
1.57978
1.63021
1.68809
1.75395
1.82842
1.9121
2.00549
2.10895
2.22248
2.34579
2.47819
2.61872
2.76646
2.92093
3.08237
3.25205
1.13005
1.13685
1.14935
1.16748
1.19139
1.22124
1.25725
1.2997
1.34893
1.40533
1.46933
1.54141
1.62198
1.71141
1.80983
1.91717
2.03312
2.15715
2.28862
2.42692
2.57169
2.72309
2.88204
0.84664
0.853319
0.865511
0.883132
0.906322
0.935247
0.970104
1.01113
1.05862
1.11288
1.17424
1.24302
1.31952
1.40394
1.4963
1.59642
1.70402
1.81867
1.93984
2.06696
2.19964
2.33782
2.48206
0.556093
0.562569
0.574349
0.591324
0.613619
0.64138
0.674768
0.713983
0.759246
0.81079
0.868847
0.933628
1.00528
1.08387
1.16929
1.26131
1.35962
1.4638
1.57326
1.68733
1.80535
1.92695
2.05243
0.258715
0.264883
0.276116
0.292273
0.313468
0.339816
0.37144
0.40848
0.451095
0.499448
0.553669
0.61386
0.680025
0.75208
0.829816
0.912921
1.00101
1.09355
1.18976
1.28868
1.38929
1.49087
1.59372
-0.0450851
-0.0393096
-0.0287512
-0.0135626
0.00633836
0.0310399
0.0606306
0.0951866
0.1348
0.179558
0.229501
0.284602
0.344731
0.409664
0.479063
0.552506
0.629464
0.709161
0.790482
0.872019
0.952233
1.03014
1.10637
-0.354928
-0.349614
-0.339833
-0.325741
-0.307289
-0.284422
-0.257097
-0.225286
-0.188963
-0.148121
-0.102825
-0.0532169
0.000436009
0.0577582
0.118279
0.181433
0.246447
0.312157
0.376923
0.43866
0.495232
0.545429
0.589995
-0.67045
-0.665652
-0.656727
-0.643833
-0.626948
-0.606065
-0.581176
-0.55231
-0.5195
-0.482822
-0.442442
-0.39862
-0.351765
-0.302394
-0.25112
-0.198717
-0.146303
-0.0956058
-0.0490201
-0.0094715
0.0200675
0.0376557
0.0431036
-0.9913
-0.987046
-0.979028
-0.967396
-0.952167
-0.933369
-0.911041
-0.885254
-0.856104
-0.823751
-0.788452
-0.750587
-0.710696
-0.669436
-0.627578
-0.586151
-0.546774
-0.511874
-0.484721
-0.469376
-0.470215
-0.491222
-0.535545
-1.31711
-1.3134
-1.3063
-1.29597
-1.28245
-1.2658
-1.24611
-1.22348
-1.19807
-1.1701
-1.13993
-1.10806
-1.07513
-1.04194
-1.00942
-0.978929
-0.952667
-0.933788
-0.926553
-0.936469
-0.970288
-1.03599
-1.14345
-1.64744
-1.64426
-1.63806
-1.62904
-1.61726
-1.6028
-1.58577
-1.56633
-1.54465
-1.52105
-1.49596
-1.46996
-1.44382
-1.41843
-1.3949
-1.37498
-1.36136
-1.35787
-1.36973
-1.40419
-1.47119
-1.58493
-1.76739
-1.98177
-1.9791
-1.97379
-1.96608
-1.95604
-1.94376
-1.92939
-1.91308
-1.89509
-1.87576
-1.85558
-1.83522
-1.81551
-1.79745
-1.78233
-1.77216
-1.77
-1.78012
-1.80855
-1.86409
-1.95997
-2.11775
-2.37583
-2.31958
-2.31738
-2.31295
-2.30653
-2.2982
-2.28808
-2.2763
-2.26307
-2.24866
-2.23342
-2.21791
-2.20283
-2.18907
-2.17769
-2.1701
-2.16842
-2.17582
-2.19671
-2.23744
-2.30753
-2.42201
-2.60748
-2.91515
-2.66032
-2.65858
-2.65501
-2.64985
-2.64321
-2.6352
-2.62595
-2.61569
-2.60469
-2.59334
-2.58219
-2.57196
-2.56356
-2.55807
-2.55691
-2.56213
-2.57671
-2.60486
-2.65259
-2.72882
-2.84746
-3.03305
-3.33301
-3.00344
-3.00217
-2.99944
-2.99553
-2.99054
-2.98458
-2.97779
-2.97037
-2.96261
-2.9549
-2.94777
-2.94193
-2.93827
-2.93782
-2.94189
-2.95226
-2.97154
-3.00343
-3.05303
-3.12741
-3.23688
-3.39821
-3.63981
-3.34838
-3.3476
-3.3457
-3.34303
-3.33967
-3.3357
-3.33126
-3.32656
-3.32186
-3.31754
-3.3141
-3.3122
-3.31266
-3.31642
-3.32454
-3.33843
-3.36021
-3.39284
-3.4402
-3.50722
-3.60019
-3.72751
-3.89971
-3.69461
-3.69434
-3.6933
-3.69185
-3.69007
-3.68804
-3.68588
-3.68377
-3.68196
-3.68081
-3.68075
-3.68238
-3.68642
-3.69363
-3.7048
-3.7209
-3.74345
-3.77461
-3.81711
-3.87411
-3.94882
-4.04473
-4.16459
-4.04164
-4.04192
-4.04175
-4.04152
-4.04131
-4.04116
-4.04119
-4.04157
-4.04252
-4.04434
-4.04741
-4.05226
-4.05944
-4.0695
-4.08295
-4.10035
-4.12256
-4.15094
-4.18727
-4.2333
-4.29033
-4.35949
-4.44303
-4.38914
-4.38996
-4.39065
-4.39164
-4.39297
-4.39466
-4.39682
-4.39961
-4.4032
-4.40786
-4.41389
-4.42171
-4.43173
-4.44427
-4.45954
-4.47774
-4.4991
-4.52423
-4.55404
-4.58905
-4.62917
-4.67422
-4.72529
-4.73684
-4.73812
-4.73966
-4.74187
-4.74472
-4.74823
-4.75248
-4.75762
-4.7638
-4.77121
-4.7801
-4.79077
-4.80348
-4.81833
-4.83531
-4.85424
-4.87483
-4.89701
-4.92084
-4.94575
-4.97037
-4.99265
-5.01015
-5.08405
-5.08572
-5.08811
-5.09154
-5.0959
-5.10119
-5.10751
-5.11496
-5.12367
-5.13379
-5.14549
-5.15897
-5.17433
-5.19152
-5.21032
-5.23025
-5.25062
-5.27082
-5.29014
-5.3071
-5.31907
-5.32174
-5.308
-5.43105
-5.43303
-5.43632
-5.441
-5.44686
-5.45395
-5.46233
-5.47211
-5.48338
-5.49625
-5.51084