/*--------------------------------*- C++ -*----------------------------------*\
| =========                 |                                                 |
| \\      /  F ield         | OpenFOAM: The Open Source CFD Toolbox           |
|  \\    /   O peration     | Version:  v1912                                 |
|   \\  /    A nd           | Website:  www.openfoam.com                      |
|    \\/     M anipulation  |                                                 |
\*---------------------------------------------------------------------------*/
FoamFile
{
    version     2.0;
    format      ascii;
    class       volScalarField;
    location    "0.35";
    object      p_rgh;
}
// * * * * * * * * * * * * * * * * * * * * * * * * * * * * * * * * * * * * * //

dimensions      [1 -1 -2 0 0 0 0];


internalField   nonuniform List<scalar> 
9072
(
1070.01
1073.91
1076.46
1070.66
1061.81
1054.01
1047.79
1042.81
1038.89
1036.25
1035.44
1037.26
1042.65
1052.59
1068.22
1090.35
1120.03
1156.65
1187.79
1183.41
1179.69
1140.22
1159.75
1068.18
1072.84
1075.31
1069.56
1060.94
1053.36
1047.25
1042.27
1038.31
1035.6
1034.72
1036.48
1041.79
1051.58
1066.73
1088.04
1115.71
1148.12
1177.52
1183.92
1198.01
1103.34
1074.65
1064.93
1070.34
1072.68
1067.04
1058.96
1051.87
1045.98
1040.99
1036.92
1034.07
1033.06
1034.67
1039.8
1049.35
1064.14
1084.65
1110.56
1139.27
1163.8
1177.81
1193.91
1063.63
1009.22
1060.38
1066.5
1068.66
1063.28
1056.01
1049.58
1043.95
1038.94
1034.7
1031.65
1030.42
1031.79
1036.65
1045.88
1060.18
1079.84
1104.19
1130.54
1153.39
1167.21
1172.32
1088.64
1063.51
1054.66
1061.46
1063.45
1058.51
1052.22
1046.53
1041.16
1036.08
1031.62
1028.29
1026.77
1027.83
1032.33
1041.13
1054.86
1073.68
1096.73
1121.45
1143.3
1157.51
1160.11
1130.73
1149.02
1048
1055.44
1057.26
1052.95
1047.72
1042.73
1037.56
1032.36
1027.62
1023.97
1022.09
1022.75
1026.79
1035.06
1048.16
1066.18
1088.23
1111.91
1133.37
1148.57
1154.69
1154.42
1203.48
1040.71
1048.44
1050.32
1046.77
1042.58
1038.16
1033.1
1027.72
1022.67
1018.64
1016.33
1016.49
1019.97
1027.6
1040.02
1057.3
1078.59
1101.72
1123.34
1140.03
1150.4
1161.19
1206.81
1033.11
1040.8
1042.83
1040.11
1036.79
1032.79
1027.73
1022.12
1016.73
1012.27
1009.44
1008.99
1011.77
1018.66
1030.33
1046.91
1067.66
1090.65
1112.89
1131.33
1144.82
1157.17
1177.9
279.913
279.873
279.802
279.713
279.611
279.504
279.398
279.299
279.208
279.125
279.051
278.986
278.929
278.88
278.839
278.805
278.78
278.762
278.753
279.917
279.875
279.803
279.714
279.611
279.503
279.397
279.298
279.206
279.124
279.05
278.985
278.928
278.878
278.837
278.803
278.778
278.76
278.75
279.921
279.878
279.807
279.717
279.612
279.502
279.395
279.295
279.204
279.121
279.048
278.982
278.925
278.875
278.833
278.799
278.773
278.755
278.745
279.923
279.881
279.813
279.722
279.614
279.501
279.391
279.291
279.199
279.117
279.043
278.978
278.92
278.869
278.827
278.792
278.766
278.747
278.737
279.917
279.879
279.821
279.73
279.616
279.498
279.386
279.285
279.193
279.111
279.037
278.972
278.913
278.862
278.819
278.783
278.756
278.737
278.727
279.884
279.861
279.834
279.741
279.618
279.493
279.378
279.277
279.186
279.104
279.03
278.964
278.905
278.853
278.809
278.772
278.744
278.724
278.713
279.814
279.825
279.858
279.757
279.619
279.485
279.368
279.267
279.176
279.095
279.021
278.955
278.895
278.842
278.796
278.758
278.729
278.709
278.697
279.676
279.964
279.888
279.774
279.618
279.474
279.354
279.254
279.165
279.084
279.011
278.944
278.883
278.829
278.782
278.742
278.711
278.69
278.678
1018.83
1030.36
1032.52
1030.93
1028.53
1024.79
1019.59
1013.63
1007.75
1002.66
999.061
997.667
999.349
1005.08
1015.63
1031.32
1051.59
1074.86
1098.36
1119.15
1135.18
1143.73
1116.29
1002.6
1012.54
1014.39
1013.8
1011.92
1007.96
1002.21
995.457
988.477
981.948
976.525
972.832
971.781
974.79
983.141
997
1016.73
1041.82
1068.94
1094.16
1113.82
1120.31
1092.13
992.33
991.539
995.327
994.475
991.706
986.888
980.49
972.972
964.847
956.789
949.471
943.399
938.945
938.058
939.317
945.117
967.349
995.899
1028.71
1060.4
1088.23
1102.81
1096.65
1013.62
976.949
978.983
973.2
967.586
960.641
948.426
924.018
883.143
824.419
750.339
666.449
575.874
498.388
467.616
510.048
637.828
832.593
990.223
1027.75
1063.75
1086.71
1099.55
415.88
70.3893
69.3634
33.1263
10.3653
5.48181
5.59007
5.69476
5.82601
6.02235
6.2741
6.4797
6.53352
6.48717
6.50046
6.32139
6.09156
6.17652
6.71408
56.8137
462.396
1075.98
1113.67
5.44184
5.41707
5.46472
5.50102
5.53163
5.53483
5.58455
5.66489
5.7672
5.90493
6.63444
6.82068
6.82836
6.71263
6.11728
6.04554
5.92992
5.89446
5.99381
6.12602
6.34914
6.84897
141.782
5.35957
5.40012
5.41619
5.43931
5.46714
5.49684
5.54298
5.60533
5.66916
6.4282
6.57634
5.89264
5.95532
5.97379
5.94955
5.9378
5.8074
5.73828
5.87156
6.05283
6.2191
6.39548
6.62284
5.27694
5.33254
5.35276
5.37478
5.40337
5.43797
5.4819
5.53405
5.58373
5.69708
5.73021
5.769
5.8102
5.8248
5.8003
6.32868
6.29296
5.65836
5.73459
5.98977
6.20379
7.88909
7.94569
5.20594
5.25959
5.27963
5.30321
5.33194
5.36679
5.40843
5.45566
5.5042
5.54511
5.5976
5.68231
5.69562
5.7163
5.70154
5.6349
5.87748
6.24331
5.74674
5.93878
6.7774
8.15272
7.18023
5.13396
5.18295
5.20174
5.22441
5.25247
5.28627
5.32575
5.36993
5.41665
5.46337
5.51174
5.56095
5.60371
5.63369
5.64686
5.63918
5.5862
6.09766
6.52353
6.18463
6.24122
6.46628
6.68475
5.05382
5.10236
5.11776
5.13869
5.1655
5.19796
5.23571
5.27796
5.32352
5.37125
5.42072
5.47123
5.52019
5.56609
5.60721
5.64571
5.68834
5.7396
6.3138
6.1884
6.36272
6.56464
6.7481
4.96304
5.01406
5.02663
5.04586
5.07132
5.10254
5.13907
5.1803
5.22552
5.27414
5.32593
5.38079
5.4384
5.49906
5.56452
5.63885
5.73009
5.85187
6.02166
6.24811
6.43227
6.60964
6.77778
4.86185
4.91676
4.92775
4.94569
4.97003
5.00029
5.03607
5.07694
5.12251
5.17259
5.22733
5.2872
5.35295
5.42595
5.5088
5.60573
5.72281
5.86689
6.04055
6.23129
6.4165
6.58867
6.75634
4.75138
4.81066
4.82097
4.83812
4.8617
4.89134
4.92672
4.96761
5.01387
5.06561
5.12326
5.18763
5.25992
5.34183
5.43584
5.54519
5.6734
5.82273
5.99118
6.17002
6.34815
6.52153
6.69365
4.63265
4.69628
4.70642
4.72316
4.74627
4.7755
4.81068
4.85172
4.8987
4.95193
5.012
5.07985
5.15676
5.24436
5.34465
5.45981
5.59154
5.74006
5.90271
6.0739
6.24767
6.4215
6.5975
4.50641
4.57413
4.58429
4.6008
4.62358
4.6525
4.68749
4.72863
4.77614
4.83045
4.89221
4.96235
5.04204
5.13265
5.2357
5.35251
5.48382
5.62909
5.78605
5.95109
6.12079
6.29377
6.47129
4.37309
4.44463
4.4548
4.4711
4.49354
4.5221
4.55683
4.59789
4.64559
4.70044
4.76306
4.8343
4.91514
5.00667
5.10994
5.22574
5.35428
5.49491
5.6459
5.80487
5.96979
6.13993
6.31631
4.23285
4.30806
4.31814
4.33416
4.35617
4.38426
4.41856
4.45929
4.50681
4.56159
4.62423
4.69543
4.776
4.86674
4.96834
5.08123
5.20539
5.34023
5.48451
5.63669
5.79553
5.9607
6.13305
4.08555
4.16441
4.17434
4.19001
4.21153
4.23906
4.27275
4.31288
4.35977
4.41386
4.47566
4.54575
4.62475
4.71323
4.81163
4.92014
5.03862
5.16658
5.30318
5.4474
5.59853
5.7564
5.92171
3.93099
4.01351
4.02327
4.03857
4.05957
4.08642
4.11932
4.15852
4.20431
4.25708
4.31722
4.3852
4.46148
4.54644
4.64037
4.74327
4.85496
4.97503
5.10287
5.23781
5.37936
5.52739
5.68236
3.76921
3.85527
3.86481
3.8797
3.90008
3.92612
3.95798
3.99589
4.04012
4.09095
4.14872
4.21374
4.28636
4.3668
4.4552
4.55147
4.65537
4.76656
4.88454
5.00874
5.13868
5.27409
5.41513
3.60048
3.68984
3.69907
3.71343
3.73305
3.75806
3.78861
3.82488
3.86709
3.91547
3.97024
4.03164
4.09984
4.17496
4.25699
4.34574
4.44095
4.54226
4.64916
4.76101
4.87713
4.99696
5.12033
3.42517
3.51755
3.52634
3.54002
3.55868
3.58243
3.6114
3.64572
3.68552
3.73099
3.78226
3.83946
3.90264
3.97177
4.0467
4.12716
4.21281
4.30321
4.3977
4.49539
4.59528
4.69642
4.79842
3.24366
3.33879
3.34705
3.3599
3.37743
3.39972
3.42686
3.45892
3.49599
3.53817
3.58552
3.63805
3.69569
3.75825
3.82547
3.89695
3.97222
4.05067
4.13134
4.21296
4.29402
4.37312
4.4499
3.0563
3.15397
3.16159
3.1735
3.18977
3.21042
3.23552
3.26508
3.29915
3.33773
3.38081
3.42829
3.47996
3.5355
3.59449
3.6564
3.7206
3.78614
3.85161
3.91514
3.97454
4.02796
4.07501
2.86342
2.96344
2.97036
2.98125
2.99614
3.01502
3.03791
3.06479
3.09564
3.13039
3.16895
3.21109
3.25649
3.30467
3.35508
3.40703
3.45961
3.51142
3.5604
3.60386
3.63874
3.66242
3.67372
2.66537
2.76756
2.77374
2.78356
2.797
2.81401
2.83458
2.85865
2.88613
2.91691
2.95078
2.98742
3.02637
3.06703
3.1087
3.1505
3.19115
3.22865
3.26013
3.28193
3.28972
3.27922
3.24669
2.46255
2.56671
2.57216
2.58088
2.59282
2.60791
2.62609
2.64726
2.67131
2.69804
2.72716
2.75825
2.79074
2.8239
2.8569
2.88862
2.91732
2.94035
2.95402
2.95345
2.93249
2.88379
2.79828
2.25545
2.36133
2.36609
2.37372
2.38413
2.39725
2.41302
2.43127
2.45186
2.47455
2.49896
2.52459
2.55076
2.57665
2.60127
2.62326
2.64044
2.64956
2.64614
2.62403
2.57475
2.4865
2.34147
2.04461
2.15195
2.15606
2.16258
2.17147
2.18264
2.19599
2.21135
2.22853
2.24724
2.26707
2.28743
2.30758
2.32661
2.34339
2.35635
2.36297
2.35961
2.34123
2.30058
2.22691
2.10355
1.9016
1.83053
1.93911
1.94259
1.94804
1.95542
1.96465
1.97562
1.98815
2.00201
2.01689
2.03234
2.04774
2.06228
2.075
2.0847
2.08966
2.08726
2.07376
2.04391
1.98997
1.90007
1.75456
1.51664
1.61375
1.72336
1.72623
1.7306
1.7365
1.74383
1.75249
1.76227
1.77294
1.78417
1.7955
1.8063
1.81573
1.82283
1.82636
1.82464
1.81519
1.79443
1.75739
1.69677
1.60154
1.45359
1.21896
1.39489
1.50526
1.50751
1.51081
1.51524
1.52072
1.52712
1.53426
1.54189
1.54968
1.55717
1.56376
1.56863
1.57083
1.5692
1.56225
1.54781
1.52276
1.48277
1.42182
1.33148
1.19879
1.00201
1.1746
1.2854
1.28696
1.28918
1.29216
1.29584
1.30007
1.30467
1.30941
1.31397
1.31792
1.32068
1.32151
1.31953
1.31373
1.30294
1.28542
1.25865
1.2192
1.1627
1.08359
0.974673
0.826278
0.953406
1.06428
1.06509
1.06621
1.06779
1.0697
1.07182
1.07398
1.07598
1.07751
1.07818
1.07748
1.07473
1.0692
1.06012
1.04664
1.02754
1.00099
0.964536
0.915193
0.849757
0.764888
0.657131
0.731701
0.84237
0.842367
0.842387
0.84256
0.842755
0.84283
0.842647
0.842016
0.840674
0.838285
0.834393
0.828451
0.819895
0.808198
0.79286
0.773194
0.748097
0.715979
0.674997
0.623612
0.560703
0.484696
0.509815
0.620052
0.619196
0.618112
0.616903
0.615407
0.613494
0.611039
0.607876
0.603786
0.598489
0.591614
0.58274
0.571501
0.557618
0.540899
0.521166
0.498025
0.470667
0.43827
0.400675
0.35812
0.310397
0.28796
0.397608
0.395886
0.393714
0.391142
0.387976
0.384109
0.379429
0.373794
0.367027
0.358913
0.349168
0.337499
0.323729
0.307806
0.289816
0.270021
0.248649
0.225633
0.201119
0.176151
0.152404
0.13227
0.0672803
0.175706
0.173114
0.169873
0.165951
0.161136
0.155341
0.148473
0.14041
0.131014
0.120132
0.107565
0.0931454
0.0768548
0.0588204
0.0393763
0.0191351
-0.00121855
-0.0211008
-0.0394996
-0.0543557
-0.0624066
-0.0579279
-0.154745
-0.0459282
-0.0494558
-0.0537548
-0.0590322
-0.0654946
-0.0732175
-0.082286
-0.0927994
-0.10486
-0.118571
-0.134045
-0.151341
-0.170369
-0.190858
-0.21229
-0.233843
-0.254542
-0.27329
-0.288396
-0.297059
-0.294779
-0.274389
-0.366887
-0.266969
-0.27147
-0.276806
-0.283446
-0.291542
-0.301182
-0.312448
-0.325426
-0.340188
-0.356789
-0.375269
-0.395603
-0.417624
-0.440982
-0.465067
-0.488985
-0.511612
-0.531513
-0.546545
-0.553553
-0.547841
-0.522061
-0.587256
-0.477202
-0.482663
-0.488998
-0.496881
-0.506463
-0.517858
-0.531153
-0.546426
-0.563731
-0.583088
-0.604474
-0.6278
-0.652859
-0.679291
-0.70651
-0.733659
-0.759546
-0.782523
-0.80031
-0.809822
-0.806969
-0.785838
792.598
344.398
282.374
281.4
998.208
880.626
570.38
333.598
1066.94
1036.81
998.716
953.982
1096.89
1091.01
1085.25
1078.45
1126.34
1128.02
1131.74
1134.71
693.978
984.351
1177.23
1187.64
6.91835
7.18276
7.31974
21.1122
8.05155
7.12361
6.96584
7.03193
6.87573
7.01727
7.04228
7.12698
6.86662
6.97011
7.07737
7.16169
6.90893
7.00039
7.09516
7.18376
6.9276
7.01302
7.1005
7.19116
6.90632
6.9915
7.07909
7.16989
6.84777
6.93479
7.02425
7.11668
6.75568
6.8448
6.93638
7.03068
6.63185
6.72235
6.8153
6.91072
6.47675
6.56723
6.66012
6.75517
6.29043
6.3791
6.46991
6.56241
6.07285
6.15761
6.24392
6.33136
5.8237
5.90227
5.9817
6.06198
5.54282
5.61295
5.6837
5.75547
5.23066
5.29049
5.35129
5.41344
4.88801
4.93602
4.98546
5.03631
4.51527
4.54956
4.58531
4.6221
4.11127
4.12861
4.14678
4.1655
3.67301
3.66786
3.66234
3.65642
3.19703
3.16046
3.12083
3.07775
2.68336
2.60162
2.50972
2.40591
2.14421
1.99909
1.8253
1.6142
1.61763
1.40034
1.12411
0.763827
1.17286
0.899778
0.532439
0.0189765
0.888431
0.630914
0.283212
-0.217839
0.748465
0.568398
0.345668
0.0571253
0.657539
0.552115
0.437716
0.311298
0.543976
0.476542
0.407294
0.333167
0.404822
0.353409
0.292512
0.20567
0.26184
0.230037
0.189013
0.131621
0.119298
0.113772
0.107701
0.101996
-0.036335
-0.0147789
0.016619
0.0565724
-0.232287
-0.196357
-0.146335
-0.076263
-0.474129
-0.434907
-0.384476
-0.322156
-0.745254
-0.711788
-0.6669
-0.605222
279.686
280.01
279.885
279.792
279.611
279.452
279.331
279.236
279.149
279.069
278.995
278.928
278.866
278.809
278.759
278.717
278.684
278.661
278.648
274.604
278.795
279.935
279.859
279.579
279.374
279.273
279.199
279.116
279.037
278.964
278.895
278.83
278.769
278.713
278.665
278.627
278.6
278.586
933.363
520.461
280.214
279.957
279.494
279.127
279.198
279.176
279.074
278.997
278.924
278.854
278.788
278.721
278.655
278.597
278.552
278.522
278.505
1069.7
1063.03
1090.82
1018.3
558.492
302.281
279.4
279.291
278.948
278.943
278.877
278.802
278.745
278.667
278.583
278.512
278.457
278.421
278.401
1139.34
1151.4
1163.87
1166.95
1167.8
1186.11
1185.29
732.593
277.896
279.083
278.79
278.724
278.721
278.612
278.495
278.403
278.336
278.292
278.27
1198.71
1219.14
1232.24
1243.68
1254.35
1265.77
1282.12
1304.88
1326.68
1045.82
277.32
278.632
278.828
278.549
278.378
278.263
278.179
278.127
278.103
147.888
525.915
880.682
1146.06
1310.81
1329.63
1346.34
1370.1
1387.89
1415.57
1470.04
885.45
279.186
278.356
278.187
278.084
277.975
277.911
277.889
7.14217
7.39972
7.69428
8.09389
8.50316
59.7412
285.881
874.718
1434.28
1474.87
1514.14
1552.85
1494.72
276.958
278.123
277.881
277.697
277.612
277.613
7.23904
7.45882
7.70823
7.97116
8.23179
8.49045
8.79089
9.07452
9.83286
173.687
1092.87
1593.61
1643.72
1701.56
802.441
277.309
277.219
277.18
277.249
7.28597
7.51366
7.76115
8.02085
8.28575
8.55298
8.83709
9.14443
9.49977
9.86603
10.2739
52.0356
1263.36
1732.57
1784.02
1408.79
276.638
276.274
276.79
7.31012
7.54343
7.79259
8.05652
8.33382
8.6226
8.9226
9.23793
9.59453
9.97515
10.3669
10.7407
11.3118
310.473
1824.5
1904.95
1376.96
274.825
276.361
7.31646
7.55171
7.80579
8.07818
8.36902
8.67816
9.00625
9.35264
9.71881
10.1068
10.5127
10.9311
11.3392
11.7516
59.5554
1940.9
2049.15
559.586
275.511
7.29597
7.53508
7.79601
8.07862
8.38358
8.71134
9.06305
9.43867
9.8346
10.2452
10.6688
11.1074
11.5607
12.0045
12.4177
310.042
2096.83
1830.51
274.815
7.24502
7.48963
7.75814
8.05122
8.37026
8.71695
9.09285
9.49603
9.92056
10.3613
10.8161
11.2845
11.7663
12.2592
12.7371
13.2265
1751.49
2293.2
287.657
7.16129
7.41126
7.68664
7.98956
8.32306
8.69049
9.09259
9.52408
9.97705
10.4477
10.936
11.4418
11.9607
12.4838
12.994
13.5028
443.393
2365.23
460.523
7.04243
7.29571
7.57593
7.88752
8.236
8.62609
9.05585
9.51545
9.99632
10.4974
11.0199
11.5635
12.1253
12.6945
13.2603
13.8014
14.0753
2437.86
643.272
6.88589
7.139
7.42059
7.73834
8.10116
8.5145
8.97255
9.45892
9.96529
10.4953
11.0508
11.6351
12.2479
12.8819
13.5294
14.1676
14.7413
2321.14
793.348
6.68929
6.93735
7.21545
7.53506
7.90795
8.3432
8.83045
9.34022
9.86608
10.4215
11.0087
11.6364
12.3071
13.0197
13.7694
14.5286
15.2901
1482.51
1893.24
6.45148
6.6891
6.95718
7.26981
7.64449
8.09803
8.61752
9.13988
9.6714
10.2532
10.8683
11.5378
12.2722
13.0771
13.9542
14.9055
15.9269
274.339
3014.17
6.17298
6.39448
6.64463
6.93847
7.29971
7.76356
8.30807
8.78112
9.30029
9.9332
10.5572
11.2736
12.0948
13.0142
14.0346
15.1955
16.5827
18.8082
3331.13
5.85539
6.05512
6.27955
6.54149
6.8582
7.28691
10.2247
10.3847
8.55345
9.30296
9.85849
10.6879
11.6713
12.7554
13.9219
15.2339
16.8929
18.204
2488.37
5.50016
5.67326
5.867
6.08824
6.33266
9.21789
9.54635
7.18603
10.4273
9.94646
8.66245
9.60008
10.8799
12.2068
13.5265
14.8716
16.514
471.625
2028.54
5.10719
5.2504
5.4135
5.60022
5.80455
7.60267
7.09035
6.90059
14.9
22.0353
7.26042
8.18467
9.7947
11.3854
12.8772
14.209
15.4748
1010.97
3228.81
4.67393
4.78462
4.92047
5.08659
5.27545
6.1674
6.2637
21.9532
18.7094
5.75275
12.5749
6.93718
8.71215
10.4684
12.0908
13.4767
15.5006
1632.89
2179.93
4.1936
4.26674
4.38008
4.54805
4.7774
4.92555
7.78683
19.0506
0.727754
0.639082
9.3934
10.7509
7.82671
9.6018
11.1788
12.7375
1227.86
953.678
768.872
3.65175
3.67429
3.76568
3.9702
4.28219
4.62765
5.35035
20.6989
-0.353759
-0.765489
-0.00493177
10.3918
6.7747
8.80937
10.1458
233.124
1525.07
252.092
7.43877
3.02095
2.95785
3.00476
3.28178
3.74498
4.15928
29.0565
9.48813
-1.06087
-1.31643
-0.941172
4.59216
6.03558
8.24806
10.8352
1549.13
990.704
-6.12444
-8.13299
2.25692
1.99642
1.90006
2.30733
2.87319
3.1674
28.485
3.35521
2.49002
0.842301
2.70774
3.53936
6.38531
7.76858
1457.46
808.339
1.06394
-13.4777
-28.4474
1.27853
0.463021
0.145295
1.06949
2.0359
2.94272
12.4383
5.05819
4.59539
3.83662
2.43834
4.79821
82.4149
1276.99
590.554
-11.4172
-10.9052
-15.3178
-41.26
0.104458
-1.64115
-1.58273
0.288043
1.98855
2.57087
17.4511
5.36267
5.89791
2.8461
-0.187495
459.285
1201.01
330.375
-18.1224
-17.7929
-17.0601
-14.265
-24.0759
-0.937908
8.95139
-1.62756
185.811
62.2802
2.09584
17.5243
5.36385
4.11728
3.51965
865.563
1108.96
66.7625
-19.7279
-21.6725
-23.1126
-23.3766
-17.111
3.33281
-1.00114
146.917
207.182
65.7051
1.20008
1.65004
11.8723
3.38781
3.6933
349.917
981.636
-8.19
-16.2701
-19.7265
-23.3337
-26.8558
-28.515
-23.6333
6.31255
0.048071
1.79273
11.8134
0.804526
0.501674
0.665335
9.5972
3.16554
4.13708
689.508
-5.49613
-12.0072
-14.8333
-18.3785
-23.0022
-28.4961
-31.2377
-24.1027
-4.25378
0.345329
16.2579
-0.289624
-0.212579
-0.485958
-0.571136
-0.0703609
148.936
819.738
111.951
-8.36627
-10.4511
-12.8548
-15.9799
-20.4423
-25.779
-27.0321
-20.7876
-13.5832
0.652722
3.75097
-0.902827
-1.42123
-1.46297
-1.67113
235.491
857.627
866.26
-4.74182
-6.96239
-8.70119
-10.63
-12.9125
-15.7941
-18.2992
-17.3032
-15.7225
-16.3188
0.0992059
1.06451
281.266
-2.37571
-1.80295
-2.62036
-2.6461
886.132
15.8879
-4.47134
-5.74207
-7.118
-8.48247
-9.8055
-10.9151
-10.953
-9.43848
-10.2655
-12.359
-0.00428266
2.00148
262.096
-0.317847
-0.949687
-2.32194
2.29459
-0.113179
-3.21322
-3.88771
-4.79664
-5.73857
-6.57824
-7.17529
-7.27165
-6.45965
-5.30737
-6.20575
-7.64277
0.0577966
0.00368483
0.255238
-0.0199735
-0.450674
-1.41037
-2.6478
-3.1352
-3.02521
-3.35866
-3.92275
-4.50509
-4.96326
-5.15145
-4.89184
-4.08237
-3.33894
-3.83288
-4.61085
0.150404
0.229984
0.370135
-0.194641
-0.450611
-0.981866
-1.66517
-2.10803
-2.35248
-2.67048
-3.0424
-3.38898
-3.61509
-3.61981
-3.31197
-2.70635
-2.22469
-2.44764
-2.85611
0.0832189
0.506581
385.95
-0.437756
-0.681239
-0.873559
-1.19203
-1.4784
-1.71198
-1.94771
-2.18471
-2.38084
-2.47887
-2.42132
-2.16956
-1.7587
-1.43324
-1.51203
-1.75103
-0.208261
0.0160963
164.325
128.089
-1.03209
-0.79537
-0.825405
-0.945511
-1.08464
-1.2287
-1.36339
-1.46295
-1.49592
-1.43503
-1.26668
-1.01593
-0.805423
-0.818395
-0.960637
-0.482626
0.141394
2018.53
1932.65
87.6696
-0.542977
-0.403239
-0.414455
-0.464051
-0.52107
-0.573508
-0.608981
-0.614258
-0.579758
-0.502517
-0.391713
-0.287329
-0.276563
-0.352681
1071.25
1076.19
1074.4
1066.24
1057.7
1050.72
1045.17
1040.72
1037.38
1035.57
1035.97
1039.45
1046.98
1059.65
1078.4
1104.19
1137.76
1174.69
1190.78
1181.48
1170.11
1112.56
1208.52
1070.11
1075.07
1073.24
1065.24
1056.95
1050.15
1044.64
1040.16
1036.77
1034.89
1035.22
1038.63
1046.07
1058.44
1076.58
1101.11
1131.59
1164.11
1184.41
1186.63
1189.37
1035.94
1174.46
1067.56
1072.49
1070.59
1062.97
1055.25
1048.8
1043.38
1038.83
1035.31
1033.29
1033.48
1036.73
1043.97
1056.05
1073.67
1097.01
1124.88
1152.66
1171.87
1184.75
1176.32
989.079
1134.6
1063.63
1068.55
1066.61
1059.6
1052.67
1046.69
1041.37
1036.71
1032.99
1030.76
1030.72
1033.73
1040.67
1052.36
1069.35
1091.54
1117.4
1142.83
1161.51
1171.17
1157.23
1020.76
1156.31
1058.47
1063.4
1061.49
1055.31
1049.31
1043.82
1038.57
1033.75
1029.78
1027.26
1026.93
1029.6
1036.15
1047.35
1063.65
1084.79
1109.13
1133.06
1151.58
1160.65
1152.78
1118.12
1220.1
1052.18
1057.26
1055.49
1050.29
1045.23
1040.17
1034.94
1029.9
1025.62
1022.76
1022.05
1024.29
1030.35
1040.98
1056.59
1076.81
1100.08
1123.19
1141.95
1152.94
1154.97
1166.43
1258.5
1045.14
1050.27
1048.84
1044.66
1040.44
1035.7
1030.41
1025.11
1020.49
1017.23
1016.05
1017.76
1023.22
1033.19
1048.08
1067.55
1090.11
1112.95
1132.48
1145.98
1154.74
1177.17
1246.6
1037.47
1042.67
1041.69
1038.48
1034.92
1030.37
1024.95
1019.35
1014.33
1010.6
1008.86
1009.92
1014.65
1023.87
1038.03
1056.85
1079.04
1102.07
1122.73
1138.64
1150.7
1166.77
1191.94
279.898
279.84
279.759
279.663
279.558
279.45
279.348
279.252
279.165
279.087
279.018
278.957
278.904
278.858
278.821
278.792
278.77
278.757
278.75
279.9
279.842
279.76
279.664
279.558
279.45
279.346
279.251
279.164
279.086
279.017
278.955
278.902
278.857
278.819
278.789
278.768
278.754
278.748
279.904
279.845
279.764
279.666
279.558
279.448
279.344
279.248
279.161
279.083
279.014
278.952
278.899
278.853
278.815
278.785
278.763
278.749
278.742
279.907
279.85
279.77
279.669
279.557
279.445
279.34
279.244
279.157
279.079
279.009
278.948
278.894
278.847
278.809
278.778
278.755
278.741
278.734
279.904
279.855
279.78
279.674
279.556
279.441
279.334
279.238
279.151
279.073
279.004
278.941
278.887
278.84
278.8
278.769
278.746
278.731
278.724
279.887
279.858
279.795
279.681
279.554
279.434
279.326
279.23
279.144
279.066
278.996
278.933
278.878
278.83
278.789
278.757
278.733
278.718
278.71
279.851
279.869
279.821
279.689
279.551
279.424
279.316
279.22
279.135
279.057
278.987
278.924
278.868
278.818
278.776
278.743
278.718
278.702
278.694
279.837
280.043
279.85
279.696
279.544
279.411
279.303
279.209
279.124
279.047
278.976
278.913
278.855
278.804
278.761
278.726
278.699
278.683
278.674
1027.09
1032.2
1031.88
1029.84
1026.86
1022.34
1016.65
1010.63
1005.06
1000.63
998.038
998.063
1001.65
1009.72
1022.84
1040.95
1063
1086.78
1109.25
1127.85
1140.84
1140.32
1059.63
1010.07
1014.1
1014.2
1013.09
1010.21
1005.26
998.905
991.952
985.113
979.061
974.417
971.898
972.688
978.239
989.461
1006.04
1028.77
1055.39
1081.99
1104.98
1119.42
1113.36
1059.63
991.106
994.165
995.147
993.35
989.529
983.857
976.843
968.946
960.764
953.002
946.251
940.947
938.059
938.574
940.619
955.725
980.637
1012.26
1044.77
1075.3
1097.72
1103.18
1085.09
985.79
976.818
976.339
970.415
964.306
955.723
938.075
905.806
855.946
789.018
709.133
623.865
532.095
476.389
479.596
563.004
730.233
950.034
1008.26
1047.54
1076.31
1094.97
1100.1
513.092
39.6426
57.0204
18.628
5.53986
5.53529
5.64117
5.75502
5.9132
6.14976
6.38531
6.55216
6.49287
6.5279
6.42009
6.21124
6.06529
6.33389
12.6363
199.066
800.171
1098.96
1123.05
5.49871
5.4429
5.47869
5.52147
5.53068
5.55419
5.62196
5.71343
5.81885
6.23243
6.79814
6.8326
6.80501
6.39878
6.08207
5.99566
5.89506
5.93465
6.05898
6.22839
6.45268
22.8326
438.179
5.39646
5.40429
5.4252
5.45354
5.48076
5.51746
5.57262
5.6398
5.68432
6.5297
6.19586
5.92722
5.9708
5.96587
5.93674
5.92625
5.73578
5.79014
5.96365
6.13472
6.30546
6.50169
6.77713
5.31848
5.3402
5.36244
5.38848
5.41969
5.45868
5.50727
5.5607
5.59612
5.92847
5.75365
5.79056
5.82204
5.81786
5.86542
6.36489
6.21469
5.62908
5.86158
6.10347
6.76344
8.09093
7.99077
5.24271
5.26859
5.2909
5.31687
5.34854
5.38677
5.43154
5.48019
5.52592
5.56841
5.66599
5.67804
5.70838
5.71516
5.67694
5.57268
6.23291
6.30601
5.81113
6.03943
7.99281
8.25399
6.84098
5.17339
5.19223
5.21242
5.23774
5.26864
5.30533
5.34736
5.39312
5.44016
5.487
5.53674
5.58355
5.62063
5.64281
5.6458
5.61938
5.54683
6.40821
6.68566
6.13315
6.34028
6.5717
6.7884
5.09781
5.10947
5.12747
5.15138
5.18103
5.21621
5.25634
5.30041
5.34716
5.39574
5.44601
5.49605
5.54379
5.58714
5.6266
5.66828
5.71141
5.78112
6.33821
6.24174
6.46827
6.65714
6.83948
5.01172
5.01947
5.03543
5.05784
5.08623
5.12017
5.15914
5.20245
5.24943
5.29965
5.353
5.40926
5.46828
5.53101
5.60019
5.68165
5.78608
5.92976
6.12774
6.33928
6.52316
6.69384
6.86272
4.91507
4.92132
4.93588
4.95709
4.98445
5.01752
5.0559
5.09916
5.14698
5.19936
5.25659
5.31928
5.38841
5.46592
5.55516
5.66131
5.79112
5.95029
6.13547
6.32601
6.50376
6.67241
6.84157
4.80892
4.81492
4.82872
4.84913
4.87578
4.90833
4.94649
4.99007
5.03903
5.09365
5.15454
5.2227
5.29953
5.38713
5.48837
5.60674
5.74541
5.90495
6.08007
6.25962
6.43532
6.60727
6.78146
4.69427
4.7005
4.71397
4.73393
4.76013
4.79235
4.83046
4.87445
4.9245
4.98106
5.04488
5.11708
5.1991
5.29278
5.40024
5.52354
5.66379
5.81992
5.98765
6.16073
6.33454
6.50899
6.68767
4.57185
4.57841
4.59175
4.61142
4.63728
4.66923
4.70729
4.75157
4.80241
4.86035
4.92617
5.00092
5.08589
5.18253
5.29231
5.41635
5.55481
5.70632
5.8678
6.03551
6.20685
6.38178
6.56276
4.44216
4.44896
4.46218
4.48156
4.50706
4.53869
4.57655
4.62088
4.67209
4.73073
4.79754
4.87345
4.9595
5.05678
5.16624
5.28844
5.42317
5.56925
5.72453
5.88667
6.05418
6.22721
6.40764
4.30548
4.31237
4.3254
4.34441
4.36945
4.40062
4.4381
4.48218
4.53326
4.59189
4.6587
4.73449
4.82005
4.91615
5.02336
5.14193
5.27154
5.41128
5.5597
5.71533
5.8773
6.04587
6.2226
4.1618
4.16868
4.18145
4.20003
4.22454
4.25512
4.29199
4.33545
4.38589
4.44376
4.50963
4.58409
4.66777
4.76117
4.86462
4.97816
5.10146
5.23386
5.37439
5.52214
5.6766
5.83805
6.00773
4.01092
4.01772
4.03022
4.04835
4.07225
4.10211
4.13811
4.18057
4.2298
4.2862
4.3502
4.42227
4.50285
4.59228
4.6907
4.79804
4.91399
5.03802
5.16949
5.30778
5.45255
5.60396
5.76291
3.8527
3.85938
3.87157
3.8892
3.91239
3.94131
3.97617
4.0172
4.06469
4.11895
4.1803
4.24908
4.32559
4.41
4.50236
4.60249
4.71009
4.82474
4.9459
5.07302
5.20571
5.34389
5.48812
3.68734
3.69382
3.7056
3.72257
3.74487
3.77263
3.80602
3.84523
3.8905
3.94204
4.0001
4.06488
4.13653
4.21512
4.30054
4.39256
4.49087
4.59505
4.70451
4.81857
4.9366
5.0582
5.18368
3.51516
3.52133
3.53256
3.54872
3.56991
3.59626
3.62788
3.66492
3.70754
3.75589
3.81011
3.8703
3.93647
4.00852
4.08626
4.16937
4.25746
4.34999
4.4462
4.54513
4.64574
4.74731
4.85016
3.33655
3.34233
3.35289
3.36808
3.38798
3.41268
3.44227
3.47683
3.51644
3.5612
3.61114
3.66624
3.72637
3.7913
3.8607
3.93415
4.0111
4.0908
4.17212
4.25366
4.33387
4.41178
4.48801
3.15191
3.15722
3.167
3.18109
3.19955
3.22241
3.24974
3.28155
3.31787
3.35871
3.40401
3.45362
3.50727
3.56459
3.62511
3.68827
3.75328
3.81899
3.88376
3.94549
4.00207
4.05226
4.09683
2.96158
2.96638
2.9753
2.9882
3.00508
3.02597
3.05085
3.07972
3.11253
3.14921
3.18959
3.23341
3.28027
3.32964
3.38091
3.43331
3.48573
3.53642
3.58301
3.62256
3.6521
3.66969
3.67513
2.76593
2.77018
2.7782
2.78983
2.80506
2.82386
2.84618
2.87197
2.90112
2.93347
2.96877
3.00664
3.04653
3.08779
3.12965
3.17107
3.21045
3.24535
3.2725
3.28785
3.28701
3.266
3.22168
2.56531
2.56902
2.57612
2.58645
2.59997
2.61662
2.63631
2.65894
2.68435
2.71232
2.74249
2.77436
2.80729
2.84048
2.873
2.90349
2.92975
2.94863
2.95587
2.94595
2.91213
2.84643
2.73897
2.36018
2.36336
2.36955
2.37858
2.39036
2.40481
2.42184
2.44129
2.46296
2.48657
2.51166
2.53765
2.5638
2.58919
2.61271
2.63263
2.64626
2.64975
2.63789
2.60342
2.53643
2.42269
2.24023
2.15104
2.15371
2.15902
2.16673
2.17677
2.18905
2.20343
2.21973
2.23772
2.25705
2.27723
2.29759
2.3173
2.33536
2.35048
2.36065
2.36281
2.35269
2.32426
2.26872
2.17284
2.01506
1.75698
1.93843
1.94062
1.94505
1.95148
1.95981
1.96993
1.9817
1.99493
2.00935
2.02458
2.04009
2.05517
2.06894
2.08032
2.08791
2.08958
2.08219
2.06129
2.02057
1.95048
1.83599
1.65053
1.34285
1.72288
1.72462
1.72819
1.73335
1.73999
1.748
1.75725
1.76751
1.77851
1.78986
1.80101
1.81124
1.81964
1.82513
1.82629
1.82108
1.80649
1.77834
1.73061
1.65438
1.53574
1.35015
1.05019
1.50495
1.50622
1.50896
1.51287
1.51785
1.52381
1.53061
1.53803
1.54579
1.5535
1.56063
1.56646
1.57013
1.57057
1.56651
1.55614
1.53685
1.50497
1.45536
1.38099
1.27152
1.11019
0.868591
1.28521
1.28599
1.28789
1.29056
1.29392
1.29789
1.30233
1.30703
1.31173
1.31605
1.31949
1.32139
1.32093
1.31717
1.30905
1.29516
1.27339
1.24076
1.19339
1.12637
1.0334
0.906084
0.73388
1.06418
1.06444
1.06548
1.06694
1.06871
1.07074
1.07291
1.07502
1.07682
1.07798
1.07804
1.0764
1.07236
1.06515
1.05399
1.03789
1.01534
0.984181
0.941681
0.884676
0.809965
0.714053
0.594193
0.84233
0.842049
0.842225
0.842449
0.842665
0.842815
0.842779
0.842401
0.841453
0.839637
0.836559
0.831713
0.824535
0.814468
0.80102
0.783622
0.761411
0.733035
0.696704
0.650673
0.593644
0.524483
0.440946
0.620023
0.619211
0.618521
0.617525
0.616201
0.614511
0.612343
0.609558
0.605963
0.601309
0.595275
0.587453
0.577436
0.564902
0.549623
0.531424
0.510063
0.484935
0.455125
0.420114
0.38
0.334951
0.283877
0.397525
0.396241
0.394698
0.39249
0.389642
0.386136
0.381878
0.376741
0.370564
0.363155
0.354266
0.343588
0.330883
0.316036
0.299055
0.280123
0.259532
0.237352
0.213519
0.188609
0.163995
0.141712
0.124213
0.175505
0.173841
0.171446
0.168017
0.163661
0.158365
0.152047
0.144598
0.135887
0.125771
0.114072
0.100592
0.0852304
0.0680408
0.0492414
0.0293089
0.00893406
-0.011263
-0.0305846
-0.0475381
-0.0595125
-0.0621793
-0.0484397
-0.0462975
-0.0482785
-0.0515688
-0.0562489
-0.062111
-0.0691939
-0.0775784
-0.0873568
-0.0986306
-0.111502
-0.126083
-0.142465
-0.16065
-0.180458
-0.201498
-0.223113
-0.244361
-0.264243
-0.281443
-0.293754
-0.297687
-0.287444
-0.254144
-0.267478
-0.269694
-0.274003
-0.279948
-0.287306
-0.296163
-0.306606
-0.318717
-0.33258
-0.348256
-0.365793
-0.385211
-0.406419
-0.429167
-0.452983
-0.477112
-0.500538
-0.522016
-0.539808
-0.551297
-0.552669
-0.538031
-0.498533
-0.476881
-0.480108
-0.485645
-0.492736
-0.501452
-0.511928
-0.524263
-0.538538
-0.554822
-0.573154
-0.593531
-0.615905
-0.640132
-0.665935
-0.692848
-0.720159
-0.746851
-0.771525
-0.792238
-0.806333
-0.810223
-0.799119
-0.765966
415.374
317.813
281.168
280.327
948.827
791.521
321.204
358.456
1052.19
1019.71
977.208
947.048