/*--------------------------------*- C++ -*----------------------------------*\
| =========                 |                                                 |
| \\      /  F ield         | OpenFOAM: The Open Source CFD Toolbox           |
|  \\    /   O peration     | Version:  v1912                                 |
|   \\  /    A nd           | Website:  www.openfoam.com                      |
|    \\/     M anipulation  |                                                 |
\*---------------------------------------------------------------------------*/
FoamFile
{
    version     2.0;
    format      ascii;
    class       surfaceScalarField;
    location    "0.35";
    object      phi;
}
// * * * * * * * * * * * * * * * * * * * * * * * * * * * * * * * * * * * * * //

dimensions      [0 3 -1 0 0 0 0];
oriented        oriented;


internalField   nonuniform List<scalar> 
17936
(
-7.99781e-07
1.63258e-06
-8.32795e-07
4.22956e-07
9.31331e-07
-1.35429e-06
-2.77288e-06
4.70255e-06
-1.92967e-06
-6.46102e-06
7.93732e-06
-1.4763e-06
-9.12733e-06
1.00849e-05
-9.5757e-07
-1.08841e-05
1.15947e-05
-7.10677e-07
-1.22704e-05
1.29445e-05
-6.74091e-07
-1.36326e-05
1.43372e-05
-7.0453e-07
-1.50519e-05
1.57661e-05
-7.14242e-07
-1.64675e-05
1.71436e-05
-6.76108e-07
-1.77829e-05
1.83749e-05
-5.9202e-07
-1.89103e-05
1.93798e-05
-4.69544e-07
-1.97748e-05
2.0086e-05
-3.11197e-07
-2.03032e-05
2.04114e-05
-1.08247e-07
-2.03833e-05
2.01732e-05
2.10091e-07
-1.97261e-05
1.89641e-05
7.61976e-07
-1.77851e-05
1.60404e-05
1.74464e-06
-1.35271e-05
1.00323e-05
3.49483e-06
-5.52078e-06
3.18311e-07
5.20247e-06
4.5418e-06
-7.15986e-06
2.61806e-06
5.80456e-06
-6.88793e-07
-5.11576e-06
3.01215e-06
-1.3406e-05
1.03938e-05
1.80447e-05
-1.12656e-05
-6.77912e-06
-2.44123e-06
3.23002e-06
-7.88787e-07
3.76e-07
1.01305e-06
2.73211e-06
-4.12116e-06
-2.87462e-06
4.80545e-06
3.87694e-06
-5.80777e-06
-6.55517e-06
8.02458e-06
2.97253e-06
-4.44194e-06
-9.21786e-06
1.01922e-05
1.94446e-06
-2.9188e-06
-1.10203e-05
1.1768e-05
1.45386e-06
-2.20155e-06
-1.24841e-05
1.31987e-05
1.37723e-06
-2.09181e-06
-1.39254e-05
1.46656e-05
1.43454e-06
-2.17481e-06
-1.54134e-05
1.61584e-05
1.4529e-06
-2.19799e-06
-1.68892e-05
1.75941e-05
1.37764e-06
-2.08254e-06
-1.82624e-05
1.88841e-05
1.21174e-06
-1.83349e-06
-1.94506e-05
1.99531e-05
9.70019e-07
-1.47259e-06
-2.03835e-05
2.07333e-05
6.57738e-07
-1.00752e-06
-2.09938e-05
2.11557e-05
2.66507e-07
-4.28392e-07
-2.12073e-05
2.11388e-05
-2.28826e-07
2.97368e-07
-2.09395e-05
2.06067e-05
-9.24869e-07
1.25767e-06
-2.01502e-05
1.96061e-05
-2.14496e-06
2.68901e-06
-1.90545e-05
1.85869e-05
-4.83103e-06
5.29864e-06
-1.80867e-05
1.69802e-05
-9.36712e-06
1.04736e-05
-1.42563e-05
9.13098e-06
-8.41584e-06
1.35411e-05
-1.92883e-06
-5.55308e-06
2.89721e-06
4.58471e-06
1.12883e-05
-1.54653e-05
-1.73344e-05
2.15115e-05
1.55701e-05
-9.87062e-06
1.44458e-05
-2.01453e-05
-3.9979e-06
4.73925e-06
-7.41353e-07
2.99067e-07
1.12326e-06
5.52588e-06
-6.94821e-06
-2.9795e-06
4.85687e-06
7.71606e-06
-9.59343e-06
-6.52561e-06
7.91356e-06
5.87514e-06
-7.26309e-06
-9.04606e-06
9.99028e-06
3.87871e-06
-4.82293e-06
-1.08185e-05
1.15897e-05
2.9588e-06
-3.73e-06
-1.23436e-05
1.31015e-05
2.82526e-06
-3.58317e-06
-1.38707e-05
1.46488e-05
2.93184e-06
-3.70996e-06
-1.5428e-05
1.6198e-05
2.95421e-06
-3.72424e-06
-1.69482e-05
1.76682e-05
2.79415e-06
-3.51422e-06
-1.83489e-05
1.89817e-05
2.45996e-06
-3.0927e-06
-1.95587e-05
2.00723e-05
1.97978e-06
-2.49335e-06
-2.05147e-05
2.0878e-05
1.363e-06
-1.72628e-06
-2.11538e-05
2.13334e-05
5.97694e-07
-7.77294e-07
-2.14072e-05
2.1365e-05
-3.55318e-07
3.97479e-07
-2.11969e-05
2.08931e-05
-1.59135e-06
1.8952e-06
-2.04463e-05
1.98546e-05
-3.32886e-06
3.92052e-06
-1.91296e-05
1.83192e-05
-6.01363e-06
6.82402e-06
-1.75672e-05
1.71778e-05
-1.05436e-05
1.0933e-05
-1.71979e-05
1.65521e-05
-1.60866e-05
1.67324e-05
-1.3122e-05
5.98033e-06
-1.29853e-05
2.01271e-05
-8.63584e-07
-1.73523e-07
-2.3985e-05
2.50221e-05
1.1516e-06
-2.08462e-06
2.27069e-05
-2.17739e-05
-5.44777e-06
6.11725e-06
-6.69482e-07
1.80601e-07
1.27264e-06
8.3874e-06
-9.84065e-06
-3.10228e-06
4.89247e-06
1.14312e-05
-1.32214e-05
-6.44443e-06
7.72422e-06
8.59905e-06
-9.87884e-06
-8.78395e-06
9.70048e-06
5.75213e-06
-6.66866e-06
-1.05419e-05
1.13555e-05
4.52e-06
-5.33357e-06
-1.21675e-05
1.29879e-05
4.37045e-06
-5.19088e-06
-1.3816e-05
1.46448e-05
4.51241e-06
-5.34124e-06
-1.54651e-05
1.62675e-05
4.50993e-06
-5.31227e-06
-1.70428e-05
1.77832e-05
4.24402e-06
-4.98438e-06
-1.84813e-05
1.91304e-05
3.73306e-06
-4.38214e-06
-1.9724e-05
2.02553e-05
3.01501e-06
-3.54627e-06
-2.07171e-05
2.11022e-05
2.0995e-06
-2.48453e-06
-2.14025e-05
2.16101e-05
9.69811e-07
-1.17743e-06
-2.17166e-05
2.17137e-05
-4.2118e-07
4.24064e-07
-2.15941e-05
2.13519e-05
-2.16882e-06
2.41098e-06
-2.09853e-05
2.04985e-05
-4.45611e-06
4.94291e-06
-1.99053e-05
1.92295e-05
-7.57141e-06
8.24724e-06
-1.84959e-05
1.7719e-05
-1.16597e-05
1.24366e-05
-1.70122e-05
1.66305e-05
-1.68723e-05
1.7254e-05
-1.65299e-05
1.53668e-05
-2.41122e-05
2.52752e-05
-1.36689e-05
1.25327e-05
-2.5933e-05
2.70692e-05
-9.96533e-06
5.3383e-06
1.87283e-05
-1.41013e-05
-6.74132e-06
7.31478e-06
-5.73455e-07
1.82781e-08
1.44303e-06
1.13032e-05
-1.27645e-05
-3.21753e-06
4.89135e-06
1.49566e-05
-1.66305e-05
-6.30593e-06
7.47079e-06
1.11008e-05
-1.22657e-05
-8.46408e-06
9.36775e-06
7.57633e-06
-8.48e-06
-1.02404e-05
1.11135e-05
6.17505e-06
-7.04814e-06
-1.19976e-05
1.28904e-05
6.04694e-06
-6.93974e-06
-1.37834e-05
1.46663e-05
6.19727e-06
-7.08018e-06
-1.55296e-05
1.63656e-05
6.13158e-06
-6.96756e-06
-1.71678e-05
1.79309e-05
5.73588e-06
-6.49896e-06
-1.86499e-05
1.93198e-05
5.04106e-06
-5.71094e-06
-1.99353e-05
2.04903e-05
4.08863e-06
-4.64362e-06
-2.09782e-05
2.13919e-05
2.88308e-06
-3.29681e-06
-2.1724e-05
2.1967e-05
1.40192e-06
-1.64491e-06
-2.21134e-05
2.21564e-05
-4.04621e-07
3.61672e-07
-2.20902e-05
2.19116e-05
-2.62127e-06
2.79995e-06
-2.16203e-05
2.12211e-05
-5.38429e-06
5.78344e-06
-2.07254e-05
2.01513e-05
-8.86807e-06
9.44214e-06
-1.95233e-05
1.8864e-05
-1.31513e-05
1.38106e-05
-1.81664e-05
1.74421e-05
-1.79094e-05
1.86336e-05
-1.71116e-05
1.77751e-05
-2.48988e-05
2.42354e-05
-1.90993e-05
1.9227e-05
-2.77495e-05
2.76218e-05
-1.63507e-05
9.40911e-06
8.03278e-06
-1.0912e-06
-7.83087e-06
8.28195e-06
-4.5108e-07
-1.45818e-07
1.61901e-06
1.42365e-05
-1.57097e-05
-3.31422e-06
4.85211e-06
1.82381e-05
-1.97759e-05
-6.12512e-06
7.1862e-06
1.33764e-05
-1.44375e-05
-8.13338e-06
9.04615e-06
9.38537e-06
-1.02981e-05
-9.96801e-06
1.09121e-05
7.95582e-06
-8.89988e-06
-1.18731e-05
1.28378e-05
7.8692e-06
-8.83393e-06
-1.37922e-05
1.47247e-05
7.98886e-06
-8.92138e-06
-1.56272e-05
1.64947e-05
7.81968e-06
-8.68712e-06
-1.73236e-05
1.81114e-05
7.27413e-06
-8.06187e-06
-1.8855e-05
1.95507e-05
6.39307e-06
-7.08879e-06
-2.01941e-05
2.07794e-05
5.21292e-06
-5.7982e-06
-2.13001e-05
2.17494e-05
3.72748e-06
-4.17677e-06
-2.21199e-05
2.24046e-05
1.90799e-06
-2.19262e-06
-2.25964e-05
2.26893e-05
-2.9417e-07
2.01259e-07
-2.26787e-05
2.25621e-05
-2.94739e-06
3.06403e-06
-2.23399e-05
2.20163e-05
-6.14348e-06
6.46707e-06
-2.16e-05
2.11043e-05
-9.97472e-06
1.04705e-05
-2.05455e-05
1.99428e-05
-1.44368e-05
1.50394e-05
-1.93213e-05
1.86926e-05
-1.93088e-05
1.99375e-05
-1.80544e-05
1.77833e-05
-2.39806e-05
2.42517e-05
-1.84601e-05
1.8897e-05
-2.70226e-05
2.65857e-05
-1.65847e-05
9.88659e-06
-6.00293e-06
1.2701e-05
-8.66015e-06
8.95762e-06
-2.97469e-07
-3.45757e-07
1.79868e-06
1.7176e-05
-1.86289e-05
-3.39246e-06
4.7874e-06
2.12425e-05
-2.26374e-05
-5.92999e-06
6.91091e-06
1.5455e-05
-1.64359e-05
-7.83861e-06
8.78209e-06
1.12238e-05
-1.21673e-05
-9.76557e-06
1.07834e-05
9.88104e-06
-1.08988e-05
-1.18164e-05
1.28439e-05
9.83164e-06
-1.08591e-05
-1.38494e-05
1.48224e-05
9.87545e-06
-1.08485e-05
-1.57578e-05
1.66536e-05
9.56911e-06
-1.04649e-05
-1.75093e-05
1.83244e-05
8.8629e-06
-9.67797e-06
-1.90972e-05
1.98247e-05
7.79963e-06
-8.52709e-06
-2.05026e-05
2.11252e-05
6.40124e-06
-7.02382e-06
-2.16859e-05
2.21777e-05
4.64642e-06
-5.13821e-06
-2.25932e-05
2.29255e-05
2.50025e-06
-2.83251e-06
-2.31677e-05
2.33141e-05
-8.2128e-08
-6.43141e-08
-2.33603e-05
2.3304e-05
-3.15035e-06
3.20664e-06
-2.31455e-05
2.28878e-05
-6.75665e-06
7.01433e-06
-2.25374e-05
2.21034e-05
-1.09335e-05
1.13675e-05
-2.15971e-05
2.103e-05
-1.56225e-05
1.61896e-05
-2.04116e-05
1.97603e-05
-2.05631e-05
2.12143e-05
-1.90654e-05
1.8239e-05
-2.48859e-05
2.57124e-05
-1.74274e-05
1.64673e-05
-2.6783e-05
2.77431e-05
-1.40388e-05
8.58421e-06
-1.87572e-05
2.42118e-05
-9.16758e-06
9.28596e-06
-1.18376e-07
-5.72635e-07
1.98973e-06
2.00641e-05
-2.14812e-05
-3.46763e-06
4.71862e-06
2.39607e-05
-2.52116e-05
-5.74848e-06
6.67705e-06
1.73874e-05
-1.8316e-05
-7.61092e-06
8.60065e-06
1.31326e-05
-1.41223e-05
-9.64894e-06
1.07332e-05
1.19514e-05
-1.30356e-05
-1.18245e-05
1.28988e-05
1.19123e-05
-1.29867e-05
-1.39408e-05
1.49431e-05
1.18376e-05
-1.28399e-05
-1.59042e-05
1.68253e-05
1.13737e-05
-1.22948e-05
-1.7708e-05
1.85529e-05
1.05077e-05
-1.13526e-05
-1.93591e-05
2.01233e-05
9.2724e-06
-1.00367e-05
-2.08415e-05
2.15074e-05
7.66746e-06
-8.33341e-06
-2.21144e-05
2.26553e-05
5.65389e-06
-6.1948e-06
-2.31227e-05
2.35096e-05
3.1913e-06
-3.5782e-06
-2.38092e-05
2.40154e-05
2.39636e-07
-4.45791e-07
-2.4123e-05
2.41292e-05
-3.23242e-06
3.22617e-06
-2.40334e-05
2.38369e-05
-7.24144e-06
7.43797e-06
-2.35439e-05
2.31608e-05
-1.17752e-05
1.21582e-05
-2.26947e-05
2.21512e-05
-1.67439e-05
1.72873e-05
-2.15314e-05
2.0825e-05
-2.18966e-05
2.2603e-05
-2.00173e-05
1.90142e-05
-2.66431e-05
2.76463e-05
-1.76282e-05
1.56645e-05
-2.93282e-05
3.12919e-05
-1.26599e-05
7.88883e-06
-2.92999e-05
3.40709e-05
-2.93791e-06
6.34886e-06
-3.41095e-06
5.62812e-06
-7.88089e-06
2.25277e-06
9.62582e-06
-1.10201e-05
1.39424e-06
1.22292e-05
-1.33475e-05
1.11836e-06
1.43989e-05
-1.53837e-05
9.84782e-07
1.62869e-05
-1.70946e-05
8.07656e-07
1.77941e-05
-1.83795e-05
5.85412e-07
1.88522e-05
-1.9206e-05
3.53817e-07
1.94424e-05
-1.95569e-05
1.14534e-07
1.95495e-05
-1.94296e-05
-1.19818e-07
1.92088e-05
-1.88927e-05
-3.16046e-07
1.84836e-05
-1.79834e-05
-5.00212e-07
1.73887e-05
-1.66957e-05
-6.92974e-07
1.59063e-05
-1.50198e-05
-8.86475e-07
1.40386e-05
-1.29621e-05
-1.07651e-06
1.17956e-05
-1.05426e-05
-1.25305e-06
9.20996e-06
-7.80062e-06
-1.40934e-06
6.32799e-06
-4.80095e-06
-1.52704e-06
3.23043e-06
-1.60055e-06
-1.62988e-06
-9.72723e-06
1.32255e-05
-3.49823e-06
6.27525e-06
-8.45784e-06
-4.4745e-06
6.65709e-06
9.93754e-06
-1.10279e-05
-2.57612e-06
3.66646e-06
1.19804e-05
-1.28872e-05
-2.07869e-06
2.98549e-06
1.37675e-05
-1.45981e-05
-1.82679e-06
2.65737e-06
1.53542e-05
-1.60146e-05
-1.46049e-06
2.12096e-06
1.65683e-05
-1.70055e-05
-1.00703e-06
1.4442e-06
1.73246e-05
-1.75275e-05
-5.37535e-07
7.40422e-07
1.76169e-05
-1.75974e-05
-8.87861e-08
6.93198e-08
1.74728e-05
-1.72485e-05
3.26314e-07
-5.50643e-07
1.69287e-05
-1.65154e-05
7.09445e-07
-1.12284e-06
1.60203e-05
-1.54381e-05
1.0709e-06
-1.65314e-06
1.47742e-05
-1.40431e-05
1.41913e-06
-2.15018e-06
1.32414e-05
-1.23759e-05
1.74782e-06
-2.6134e-06
1.14485e-05
-1.04743e-05
2.06449e-06
-3.03864e-06
9.44699e-06
-8.37483e-06
2.35056e-06
-3.42272e-06
7.26298e-06
-6.11462e-06
2.59772e-06
-3.74609e-06
4.93685e-06
-3.73485e-06
2.78864e-06
-3.99065e-06
2.51334e-06
-1.25699e-06
2.96027e-06
-4.21662e-06
-1.69623e-05
2.10452e-05
-4.08286e-06
6.97337e-06
-9.23629e-06
-8.87483e-06
1.11378e-05
1.04718e-05
-1.12726e-05
-4.64634e-06
5.44714e-06
1.20597e-05
-1.29232e-05
-3.87357e-06
4.73704e-06
1.38127e-05
-1.46687e-05
-3.49745e-06
4.35343e-06
1.54472e-05
-1.61216e-05
-2.78837e-06
3.46274e-06
1.66841e-05
-1.71235e-05
-1.88295e-06
2.32234e-06
1.74415e-05
-1.764e-05
-9.41603e-07
1.14017e-06
1.77245e-05
-1.76981e-05
-4.58337e-08
1.93663e-08
1.75665e-05
-1.73349e-05
7.79175e-07
-1.01075e-06
1.70081e-05
-1.65913e-05
1.53678e-06
-1.95353e-06
1.60891e-05
-1.55069e-05
2.23488e-06
-2.81714e-06
1.48488e-05
-1.41181e-05
2.88181e-06
-3.61245e-06
1.33198e-05
-1.24571e-05
3.47725e-06
-4.33993e-06
1.15339e-05
-1.05557e-05
4.01662e-06
-4.99483e-06
9.52546e-06
-8.44838e-06
4.49659e-06
-5.57367e-06
7.32904e-06
-6.1726e-06
4.8964e-06
-6.05284e-06
4.98505e-06
-3.77215e-06
5.19444e-06
-6.40733e-06
2.53888e-06
-1.26879e-06
5.47421e-06
-6.74431e-06
-2.55955e-05
3.07271e-05
-5.13159e-06
8.43944e-06
-1.07632e-05
-1.34457e-05
1.57695e-05
1.14316e-05
-1.16678e-05
-5.99276e-06
6.22902e-06
1.21675e-05
-1.29771e-05
-5.57515e-06
6.3847e-06
1.39122e-05
-1.48259e-05
-5.23307e-06
6.14682e-06
1.56494e-05
-1.63517e-05
-4.15108e-06
4.85337e-06
1.69235e-05
-1.73647e-05
-2.76266e-06
3.20391e-06
1.76797e-05
-1.78716e-05
-1.33553e-06
1.52734e-06
1.79474e-05
-1.79131e-05
8.42394e-09
-4.26708e-08
1.77732e-05
-1.75331e-05
1.24619e-06
-1.48633e-06
1.7198e-05
-1.67732e-05
2.37382e-06
-2.79857e-06
1.62638e-05
-1.56749e-05
3.40196e-06
-3.99091e-06
1.50103e-05
-1.4274e-05
4.34497e-06
-5.08129e-06
1.34702e-05
-1.26026e-05
5.20429e-06
-6.0719e-06
1.16744e-05
-1.06894e-05
5.97563e-06
-6.96062e-06
9.65175e-06
-8.56573e-06
6.65471e-06
-7.74074e-06
7.43546e-06
-6.26605e-06
7.21539e-06
-8.3848e-06
5.06324e-06
-3.83285e-06
7.6289e-06
-8.8593e-06
2.58026e-06
-1.28833e-06
8.02586e-06
-9.31778e-06
-3.65381e-05
4.31636e-05
-6.62553e-06
1.04281e-05
-1.29818e-05
-1.81193e-05
2.06731e-05
1.28659e-05
-1.21987e-05
-6.09748e-06
5.43027e-06
1.22553e-05
-1.30361e-05
-7.17753e-06
7.95838e-06
1.40528e-05
-1.50476e-05
-7.10146e-06
8.09626e-06
1.59352e-05
-1.66724e-05
-5.57217e-06
6.30946e-06
1.72573e-05
-1.7701e-05
-3.64571e-06
4.08941e-06
1.80085e-05
-1.81904e-05
-1.71741e-06
1.89928e-06
1.82549e-05
-1.82075e-05
8.35902e-08
-1.31038e-07
1.8055e-05
-1.78023e-05
1.73216e-06
-1.98483e-06
1.74549e-05
-1.70181e-05
3.22887e-06
-3.66573e-06
1.64969e-05
-1.58969e-05
4.58498e-06
-5.18501e-06
1.52217e-05
-1.44755e-05
5.82231e-06
-6.56846e-06
1.36618e-05
-1.27842e-05
6.94395e-06
-7.82156e-06
1.18461e-05
-1.08504e-05
7.95075e-06
-8.94638e-06
9.80123e-06
-8.70211e-06
8.83291e-06
-9.93203e-06
7.55692e-06
-6.37062e-06
9.56216e-06
-1.07485e-05
5.14671e-06
-3.89916e-06
1.01008e-05
-1.13483e-05
2.62494e-06
-1.30927e-06
1.06194e-05
-1.19351e-05
-5.07222e-05
5.90669e-05
-8.34467e-06
1.31424e-05
-1.60665e-05
-2.36064e-05
2.65305e-05
1.45387e-05
-1.28321e-05
-4.04281e-06
2.33621e-06
1.22565e-05
-1.3113e-05
-8.74983e-06
9.60641e-06
1.42933e-05
-1.53765e-05
-9.12733e-06
1.02106e-05
1.63258e-05
-1.70979e-05
-7.06576e-06
7.83788e-06
1.76988e-05
-1.8138e-05
-4.53058e-06
4.96971e-06
1.84326e-05
-1.85978e-05
-2.07359e-06
2.23883e-06
1.86445e-05
-1.85803e-05
1.86185e-07
-2.50454e-07
1.84111e-05
-1.81421e-05
2.24526e-06
-2.51433e-06
1.77783e-05
-1.73252e-05
4.1102e-06
-4.56339e-06
1.67882e-05
-1.61734e-05
5.79195e-06
-6.40677e-06
1.54843e-05
-1.47253e-05
7.3208e-06
-8.07982e-06
1.38994e-05
-1.30104e-05
8.70851e-06
-9.59755e-06
1.20593e-05
-1.10509e-05
9.94798e-06
-1.09564e-05
9.98728e-06
-8.87199e-06
1.10389e-05
-1.21542e-05
7.70637e-06
-6.50166e-06
1.19477e-05
-1.31524e-05
5.25769e-06
-3.98234e-06
1.26103e-05
-1.38857e-05
2.68142e-06
-1.33592e-06
1.32657e-05
-1.46112e-05
-6.80806e-05
7.77436e-05
-9.66302e-06
1.14861e-05
-9.52603e-06
-2.80709e-05
2.61108e-05
6.56083e-06
-9.35845e-06
-1.8182e-06
4.61581e-06
1.14531e-05
-1.30576e-05
-1.06595e-05
1.22641e-05
1.46081e-05
-1.58222e-05
-1.13536e-05
1.25676e-05
1.68548e-05
-1.76539e-05
-8.62145e-06
9.42052e-06
1.82589e-05
-1.86819e-05
-5.4013e-06
5.82427e-06
1.89517e-05
-1.90926e-05
-2.39304e-06
2.53391e-06
1.91158e-05
-1.90309e-05
3.24937e-07
-4.09852e-07
1.88418e-05
-1.85527e-05
2.79311e-06
-3.08213e-06
1.81687e-05
-1.76953e-05
5.02625e-06
-5.49969e-06
1.71383e-05
-1.65027e-05
7.03094e-06
-7.66653e-06
1.5798e-05
-1.5023e-05
8.84646e-06
-9.62147e-06
1.41821e-05
-1.32796e-05
1.04935e-05
-1.1396e-05
1.23147e-05
-1.12913e-05
1.1972e-05
-1.29954e-05
1.02105e-05
-9.0721e-06
1.32786e-05
-1.44171e-05
7.89121e-06
-6.66009e-06
1.43699e-05
-1.5601e-05
5.38836e-06
-4.08266e-06
1.51756e-05
-1.64813e-05
2.74874e-06
-1.36747e-06
1.59736e-05
-1.73549e-05
8.88992e-05
-8.71652e-05
-1.73403e-06
1.24138e-06
6.53637e-06
-1.89901e-05
1.12124e-05
-7.14346e-06
-2.42385e-06
-1.14046e-05
2.09719e-05
9.78188e-06
-1.3165e-05
-1.48863e-05
1.82694e-05
1.50493e-05
-1.63924e-05
-1.38617e-05
1.52048e-05
1.75284e-05
-1.83499e-05
-1.0234e-05
1.10556e-05
1.8945e-05
-1.9328e-05
-6.23403e-06
6.61709e-06
1.95539e-05
-1.96578e-05
-2.65527e-06
2.75918e-06
1.9652e-05
-1.95428e-05
5.06002e-07
-6.15145e-07
1.93315e-05
-1.90211e-05
3.38133e-06
-3.69172e-06
1.86157e-05
-1.81206e-05
5.98375e-06
-6.47889e-06
1.75421e-05
-1.68871e-05
8.31085e-06
-8.96588e-06
1.61605e-05
-1.53675e-05
1.04055e-05
-1.11986e-05
1.4511e-05
-1.35917e-05
1.23058e-05
-1.32251e-05
1.26114e-05
-1.15709e-05
1.40272e-05
-1.50677e-05
1.04693e-05
-9.31628e-06
1.55609e-05
-1.67139e-05
8.10581e-06
-6.84582e-06
1.68461e-05
-1.81061e-05
5.54147e-06
-4.20029e-06
1.78041e-05
-1.91453e-05
2.82782e-06
-1.40423e-06
1.87566e-05
-2.01802e-05
-9.23519e-06
8.75707e-06
4.78125e-07
-1.90769e-06
4.87595e-06
2.28843e-05
-2.58526e-05
-7.71859e-06
1.00099e-05
2.6391e-05
-2.86823e-05
-1.19443e-05
1.38415e-05
1.92268e-05
-2.1124e-05
-1.58924e-05
1.8136e-05
1.51371e-05
-1.73808e-05
-2.05205e-05
2.29641e-05
1.41475e-05
-1.65912e-05
-2.53946e-05
2.77646e-05
1.40781e-05
-1.64481e-05
-3.00519e-05
3.22521e-05
1.3854e-05
-1.60542e-05
-3.43703e-05
3.64143e-05
1.32291e-05
-1.52731e-05
-3.83896e-05
4.02976e-05
1.22147e-05
-1.41227e-05
-4.21352e-05
4.38943e-05
1.08221e-05
-1.25812e-05
-4.55637e-05
4.71281e-05
9.0234e-06
-1.05878e-05
-4.85709e-05
4.98745e-05
6.7618e-06
-8.06543e-06
-5.10214e-05
5.19952e-05
3.99294e-06
-4.96674e-06
-5.27807e-05
5.33654e-05
6.81905e-07
-1.26659e-06
-5.37388e-05
5.38978e-05
-3.18858e-06
3.02962e-06
-5.384e-05
5.35649e-05
-7.60416e-06
7.8792e-06
-5.30771e-05
5.23824e-05
-1.25175e-05
1.32122e-05
-5.14864e-05
5.03896e-05
-1.78203e-05
1.89171e-05
-4.90824e-05
4.75318e-05
-2.33239e-05
2.48746e-05
-4.56652e-05
4.33436e-05
-2.87055e-05
3.10271e-05
-4.02664e-05
3.5923e-05
-3.34223e-05
3.77657e-05
-2.95896e-05
2.13741e-05
-3.88496e-05
4.70651e-05
-7.88126e-06
6.56214e-06
1.31912e-06
-3.021e-06
5.69115e-06
2.87464e-05
-3.14165e-05
-8.10369e-06
1.00647e-05
3.07397e-05
-3.27006e-05
-1.18697e-05
1.38506e-05
2.30173e-05
-2.49983e-05
-1.61146e-05
1.85979e-05
1.97436e-05
-2.2227e-05
-2.11836e-05
2.3771e-05
1.9127e-05
-2.17144e-05
-2.62999e-05
2.87473e-05
1.88774e-05
-2.13248e-05
-3.11142e-05
3.34114e-05
1.83202e-05
-2.06175e-05
-3.5651e-05
3.78418e-05
1.74098e-05
-1.96005e-05
-3.99875e-05
4.20895e-05
1.61508e-05
-1.82528e-05
-4.4146e-05
4.615e-05
1.44838e-05
-1.64878e-05
-4.80891e-05
4.99462e-05
1.23109e-05
-1.4168e-05
-5.17029e-05
5.33409e-05
9.53082e-06
-1.11689e-05
-5.48415e-05
5.61844e-05
6.09132e-06
-7.43413e-06
-5.73454e-05
5.83057e-05
1.97763e-06
-2.938e-06
-5.90687e-05
5.95686e-05
-2.78118e-06
2.28123e-06
-5.9778e-05
5.9701e-05
-8.10016e-06
8.17715e-06
-5.9338e-05
5.87102e-05
-1.38647e-05
1.44924e-05
-5.78464e-05
5.67677e-05
-1.99723e-05
2.10509e-05
-5.54874e-05
5.40095e-05
-2.63813e-05
2.78592e-05
-5.23425e-05
5.04864e-05
-3.31904e-05
3.50465e-05
-4.8464e-05
4.62488e-05
-4.11732e-05
4.33884e-05
-4.39868e-05
4.16625e-05
-5.2285e-05
5.46093e-05
-4.51199e-06
9.95249e-07
3.51674e-06
-4.14925e-06
5.67477e-06
3.35795e-05
-3.5105e-05
-7.18782e-06
8.95027e-06
3.46829e-05
-3.64453e-05
-1.09052e-05
1.30661e-05
2.71246e-05
-2.92856e-05
-1.53981e-05
1.77956e-05
2.47531e-05
-2.71507e-05
-2.01628e-05
2.2449e-05
2.4228e-05
-2.65142e-05
-2.46427e-05
2.67525e-05
2.36596e-05
-2.57694e-05
-2.87934e-05
3.0778e-05
2.28023e-05
-2.47869e-05
-3.27136e-05
3.46025e-05
2.16754e-05
-2.35642e-05
-3.64443e-05
3.82359e-05
2.02327e-05
-2.20244e-05
-3.99685e-05
4.16274e-05
1.83799e-05
-2.00388e-05
-4.32014e-05
4.46925e-05
1.59448e-05
-1.74359e-05
-4.61188e-05
4.75028e-05
1.28144e-05
-1.41984e-05
-4.88806e-05
5.03067e-05
8.96738e-06
-1.03935e-05
-5.18431e-05
5.35345e-05
4.26796e-06
-5.95932e-06
-5.52557e-05
5.65039e-05
-1.13867e-06
-1.09528e-07
-5.79899e-05
5.93257e-05
-7.58133e-06
6.24557e-06
-6.0481e-05
6.14024e-05
-1.4582e-05
1.36607e-05
-6.20273e-05
6.22726e-05
-2.18614e-05
2.16162e-05
-6.20333e-05
6.12762e-05
-2.92677e-05
3.00249e-05
-6.01605e-05
5.89265e-05
-3.6687e-05
3.7921e-05
-5.7764e-05
5.68766e-05
-4.47698e-05
4.56572e-05
-5.66064e-05
5.71334e-05
-5.49952e-05
5.44681e-05
5.08453e-06
-1.48335e-05
9.74895e-06
-1.28524e-05
1.55275e-05
3.65959e-05
-3.9271e-05
-1.35838e-05
1.18953e-05
3.70619e-05
-3.53734e-05
-1.24377e-05
1.43969e-05
3.1279e-05
-3.32382e-05
-1.67815e-05
1.92746e-05
2.94029e-05
-3.1896e-05
-2.18485e-05
2.45096e-05
2.87082e-05
-3.13693e-05
-2.72571e-05
3.00857e-05
2.79327e-05
-3.07613e-05
-3.29936e-05
3.59903e-05
2.69747e-05
-2.99714e-05
-3.90888e-05
4.22857e-05
2.57988e-05
-2.89956e-05
-4.5555e-05
4.88862e-05
2.42403e-05
-2.75716e-05
-5.23418e-05
5.60571e-05
2.20913e-05
-2.58066e-05
-6.01878e-05
6.48365e-05
1.93327e-05
-2.39814e-05
-7.00027e-05
7.5319e-05
1.60273e-05
-2.13435e-05
-8.05458e-05
8.56376e-05
1.19205e-05
-1.70124e-05
-9.02577e-05
9.39087e-05
6.94849e-06
-1.05994e-05
-9.62535e-05
9.65667e-05
1.33511e-06
-1.64832e-06
-9.43172e-05
9.00581e-05
-5.94126e-06
1.02003e-05
-8.49583e-05
7.96515e-05
-1.33126e-05
1.86194e-05
-7.45493e-05
6.99499e-05
-2.08515e-05
2.54508e-05
-6.59244e-05
6.28694e-05
-2.97063e-05
3.27614e-05
-6.13701e-05
6.12311e-05
-3.81529e-05
3.8292e-05
-6.18365e-05
6.27969e-05
-4.59419e-05
4.49814e-05
-6.40588e-05
6.57063e-05
-5.3576e-05
5.19285e-05
2.80329e-05
-4.05319e-05
1.2499e-05
-2.67021e-05
2.78666e-05
4.31764e-05
-4.43409e-05
-2.3297e-05
2.0962e-05
3.17293e-05
-2.93942e-05
-2.19572e-05
2.36302e-05
3.55421e-05
-3.7215e-05
-2.47673e-05
2.53788e-05
3.46974e-05
-3.53089e-05
-2.61981e-05
2.72897e-05
3.43506e-05
-3.54423e-05
-2.82263e-05
2.89742e-05
3.38193e-05
-3.45672e-05
-2.93383e-05
2.91936e-05
3.30179e-05
-3.28733e-05
-2.827e-05
2.614e-05
3.18731e-05
-2.97431e-05
-2.275e-05
2.02856e-05
3.05304e-05
-2.8066e-05
-2.25538e-05
3.02267e-05
3.17156e-05
-3.93885e-05
-4.13301e-05
5.32097e-05
3.39999e-05
-4.58796e-05
-6.54336e-05
7.7288e-05
3.2708e-05
-4.45624e-05
-8.80659e-05
9.88078e-05
3.02588e-05
-4.10007e-05
-0.000109298
0.000119212
2.25253e-05
-3.24395e-05
-0.000130423
0.000144868
-3.37188e-06
-1.10732e-05
-0.000157732
0.000162109
-2.08387e-05
1.64625e-05
-0.000158961
0.000153163
-2.54846e-05
3.12823e-05
-0.000145071
0.000132178
-3.30956e-05
4.59887e-05
-0.000117361
0.000105833
-4.10571e-05
5.25853e-05
-9.77024e-05
9.07129e-05
-4.43623e-05
5.13519e-05
-8.4043e-05
7.8607e-05
-4.71614e-05
5.25974e-05
-7.44907e-05
7.21989e-05
-5.06157e-05
5.29076e-05
3.55438e-05
-2.50286e-05
-1.05152e-05
7.51926e-06
-9.45965e-06
4.19793e-05
-4.0039e-05
1.82634e-06
4.00619e-06
3.15773e-05
-3.74098e-05
-5.63192e-06
5.69452e-06
3.70202e-05
-3.70828e-05
-5.94442e-06
6.47829e-06
3.60255e-05
-3.65593e-05
-6.92876e-06
7.15428e-06
3.55483e-05
-3.57738e-05
-7.2184e-06
7.0754e-06
3.40764e-05
-3.39334e-05
-6.70028e-06
6.04095e-06
3.13442e-05
-3.06848e-05
-4.63092e-06
1.6976e-06
2.63982e-05
-2.34649e-05
5.36085e-07
6.0617e-06
2.86915e-05
-3.52893e-05
-2.04972e-05
3.44661e-05
5.35117e-05
-6.74806e-05
-4.40303e-05
4.96522e-05
5.75512e-05
-6.31731e-05
-5.32204e-05
5.66057e-05
5.29583e-05
-5.63437e-05
-6.07654e-05
6.52688e-05
4.96464e-05
-5.41498e-05
-7.01679e-05
7.67464e-05
3.9208e-05
-4.57865e-05
-8.59907e-05
9.7442e-05
1.73673e-05
-2.88186e-05
-0.000108395
0.000116087
-7.39495e-06
-2.97848e-07
-0.000120113
0.000121798
-2.76765e-05
2.59912e-05
-0.000123228
0.000125933
-4.65619e-05
4.3857e-05
-0.00012986
0.000131282
-6.22562e-05
6.08343e-05
-0.000128661
0.00012304
-6.46824e-05
7.0304e-05
-0.000113292
0.000102099
-5.78179e-05
6.90104e-05
-9.32872e-05
8.94353e-05
-5.67643e-05
6.06162e-05
1.83293e-05
-1.36224e-05
-4.70689e-06
6.39186e-06
-3.77344e-06
4.72038e-05
-4.98222e-05
1.59859e-06
3.85847e-07
3.97775e-05
-4.17619e-05
-1.99989e-06
3.44321e-06
3.79876e-05
-3.9431e-05
-4.82396e-06
6.12805e-06
3.74955e-05
-3.87996e-05
-7.3326e-06
8.45928e-06
3.65534e-05
-3.768e-05
-9.5544e-06
1.06447e-05
3.45545e-05
-3.56448e-05
-1.1755e-05
1.29455e-05
3.10599e-05
-3.22504e-05
-1.37736e-05
1.389e-05
2.13303e-05
-2.14466e-05
-1.6611e-05
2.13355e-05
4.42928e-05
-4.90173e-05
-2.31076e-05
2.18292e-05
7.40946e-05
-7.28162e-05
-1.84452e-05
1.62073e-05
6.1808e-05
-5.95701e-05
-1.71532e-05
2.07992e-05
5.64672e-05
-6.01132e-05
-2.57189e-05
3.07658e-05
5.91623e-05
-6.42091e-05
-3.60226e-05
4.21983e-05
5.46147e-05
-6.07904e-05
-5.11311e-05
6.32579e-05
4.15305e-05
-5.36573e-05
-7.67547e-05
8.91467e-05
1.1563e-05
-2.3955e-05
-9.82437e-05
0.000102779
-2.43449e-05
1.98098e-05
-0.000102559
9.90687e-05
-4.60727e-05
4.95627e-05
-9.56172e-05
9.567e-05
-5.60954e-05
5.60427e-05
-9.96789e-05
0.000106032
-6.60919e-05
5.97391e-05
-0.00011281
0.00011754
-7.40852e-05
6.93548e-05
-0.000117801
0.000113594
-6.91856e-05
7.33922e-05
1.03192e-05
-8.78382e-06
-1.53538e-06
3.28173e-06
-1.57361e-06
5.1794e-05
-5.35021e-05
2.32205e-08
1.46777e-06
4.35458e-05
-4.50368e-05
-2.97661e-06
4.4912e-06
4.09891e-05
-4.25036e-05
-5.95477e-06
7.36468e-06
4.01959e-05
-4.16058e-05
-8.75373e-06
1.0173e-05
3.89674e-05
-4.03867e-05
-1.16865e-05
1.3399e-05
3.70785e-05
-3.8791e-05
-1.53918e-05
1.78185e-05
3.42085e-05
-3.66352e-05
-2.15304e-05
2.75561e-05
2.52096e-05
-3.12353e-05
-3.19529e-05
2.86692e-05
4.76751e-05
-4.43915e-05
-2.10158e-05
1.57088e-05
6.71047e-05
-6.17977e-05
-1.55888e-05
1.7575e-05
6.17244e-05
-6.37106e-05
-1.94411e-05
2.04877e-05
6.29719e-05
-6.40185e-05
-2.09048e-05
2.13457e-05
6.64904e-05
-6.69313e-05
-2.27394e-05
2.60433e-05
6.53885e-05
-6.86924e-05
-3.07646e-05
3.70649e-05
6.39938e-05
-7.02941e-05
-4.63057e-05
5.76345e-05
3.59499e-05
-4.72786e-05
-6.83211e-05
7.66601e-05
-1.29697e-05
4.63065e-06
-8.20725e-05
8.3757e-05
-5.08131e-05
4.91286e-05
-8.09157e-05
7.26547e-05
-6.14758e-05
6.97368e-05
-6.08884e-05
5.40581e-05
-6.08448e-05
6.76751e-05
-5.59702e-05
6.56857e-05
-5.80333e-05
4.83178e-05
-8.04833e-05
9.56202e-05
-6.67743e-05
5.16374e-05
8.71258e-06
-9.82109e-06
1.10851e-06
-3.82254e-07
1.16377e-06
5.46085e-05
-5.539e-05
-1.93132e-06
3.04456e-06
4.63674e-05
-4.74806e-05
-4.34806e-06
5.72299e-06
4.39558e-05
-4.53307e-05
-7.11231e-06
8.51962e-06
4.30272e-05
-4.44345e-05
-9.97319e-06
1.15119e-05
4.18971e-05
-4.34359e-05
-1.3173e-05
1.50174e-05
4.06343e-05
-4.24787e-05
-1.7144e-05
1.95728e-05
3.9164e-05
-4.15927e-05
-2.26527e-05
2.69104e-05
3.689e-05
-4.11477e-05
-3.11652e-05
3.24573e-05
4.29236e-05
-4.42157e-05
-3.0667e-05
2.75398e-05
5.77175e-05
-5.45904e-05
-2.47546e-05
2.3201e-05
6.38148e-05
-6.22612e-05
-2.24356e-05
2.16439e-05
6.40408e-05
-6.32492e-05
-2.04106e-05
1.87535e-05
6.60742e-05
-6.4417e-05
-1.68531e-05
1.47783e-05
6.90149e-05
-6.694e-05
-1.24805e-05
1.09585e-05
7.25255e-05
-7.10035e-05
-1.26507e-05
1.97804e-05
5.73706e-05
-6.45003e-05
-3.18486e-05
4.503e-05
5.22932e-06
-1.84107e-05
-5.52972e-05
6.2584e-05
-4.38214e-05
3.65346e-05
-6.74112e-05
6.87414e-05
-7.49092e-05
7.3579e-05
-6.79621e-05
6.55378e-05
-7.42208e-05
7.66451e-05
-6.31871e-05
6.05914e-05
-4.43946e-05
4.69903e-05
-5.77763e-05
5.72951e-05
-4.06885e-05
4.11696e-05
1.16107e-05
-1.37795e-05
2.1688e-06
-2.62061e-06
3.05753e-06
5.6019e-05
-5.6456e-05
-3.56455e-06
4.43702e-06
4.84301e-05
-4.93025e-05
-5.55802e-06
6.7831e-06
4.66254e-05
-4.78505e-05
-8.06061e-06
9.39186e-06
4.58076e-05
-4.71388e-05
-1.07907e-05
1.22726e-05
4.49597e-05
-4.64416e-05
-1.38505e-05
1.55386e-05
4.42598e-05
-4.59479e-05
-1.7372e-05
1.93696e-05
4.38285e-05
-4.58261e-05
-2.14979e-05
2.3796e-05
4.42017e-05
-4.64998e-05
-2.62109e-05
2.83068e-05
4.6542e-05
-4.86378e-05
-2.95064e-05
2.93808e-05
5.32338e-05
-5.31083e-05
-2.79905e-05
2.60508e-05
6.00597e-05
-5.812e-05
-2.41127e-05
2.2302e-05
6.17757e-05
-5.9965e-05
-2.04959e-05
1.84675e-05
6.24268e-05
-6.03983e-05
-1.59872e-05
1.28486e-05
6.39332e-05
-6.07946e-05
-8.77594e-06
3.52015e-06
6.6537e-05
-6.12812e-05
2.6798e-06
-7.60577e-06
6.62579e-05
-6.13319e-05
5.5805e-06
5.53742e-06
3.21933e-05
-4.33113e-05
-2.10225e-05
3.70017e-05
-2.54482e-05
9.469e-06
-5.04574e-05
6.20739e-05
-6.59351e-05
5.43186e-05
-7.23147e-05
7.87938e-05
-7.48983e-05
6.84192e-05
-7.99196e-05
7.76972e-05
-5.19504e-05
5.41728e-05
-7.53206e-05
7.44145e-05
-4.41913e-05
4.50974e-05
1.61539e-05
-1.85825e-05
2.42862e-06
-3.63287e-06
3.98503e-06
5.68012e-05
-5.71533e-05
-4.50002e-06
5.35464e-06
5.01505e-05
-5.10051e-05
-6.39949e-06
7.53187e-06
4.9021e-05
-5.01533e-05
-8.72281e-06
9.9711e-06
4.8427e-05
-4.96753e-05
-1.1279e-05
1.26465e-05
4.78679e-05
-4.92353e-05
-1.40732e-05
1.55534e-05
4.75309e-05
-4.90111e-05
-1.70804e-05
1.86417e-05
4.75864e-05
-4.91477e-05
-2.02139e-05
2.17391e-05
4.83392e-05
-4.98644e-05
-2.31389e-05
2.43239e-05
5.02289e-05
-5.14139e-05
-2.51579e-05
2.54712e-05
5.34092e-05
-5.37224e-05
-2.51547e-05
2.42832e-05
5.67454e-05
-5.58739e-05
-2.30671e-05
2.16757e-05
5.82406e-05
-5.68492e-05
-2.0148e-05
1.84247e-05
5.84794e-05
-5.6756e-05
-1.64181e-05
1.40266e-05
5.80076e-05
-5.56161e-05
-1.11255e-05
7.51619e-06
5.6605e-05
-5.29957e-05
-2.91375e-06
-3.10365e-06
5.39179e-05
-4.79005e-05
1.05478e-05
-1.72569e-05
4.54961e-05
-3.8787e-05
1.71998e-05
-7.77862e-06
5.34765e-06
-1.47688e-05
-5.96454e-06
2.24344e-05
-3.91259e-05
2.2656e-05
-3.90168e-05
5.32182e-05
-5.68682e-05
4.26667e-05
-6.34824e-05
7.02902e-05
-5.15525e-05
4.47447e-05
-7.48871e-05
7.80854e-05
-4.42231e-05
4.10248e-05
2.09589e-05
-2.32216e-05
2.26269e-06
-3.72401e-06
4.25611e-06
5.75815e-05
-5.81136e-05
-4.92874e-06
5.84652e-06
5.18859e-05
-5.28037e-05
-6.88643e-06
7.9847e-06
5.12626e-05
-5.23609e-05
-9.12818e-06
1.03156e-05
5.08896e-05
-5.2077e-05
-1.15438e-05
1.28073e-05
5.05472e-05
-5.18107e-05
-1.40983e-05
1.54069e-05
5.03983e-05
-5.17069e-05
-1.67179e-05
1.80101e-05
5.0555e-05
-5.18472e-05
-1.92546e-05
2.04138e-05
5.11699e-05
-5.23291e-05
-2.14382e-05
2.22665e-05
5.23588e-05
-5.31871e-05
-2.28365e-05
2.31093e-05
5.39851e-05
-5.42579e-05
-2.30843e-05
2.27904e-05
5.5347e-05
-5.50532e-05
-2.22641e-05
2.15285e-05
5.58161e-05
-5.50805e-05
-2.05864e-05
1.94269e-05
5.52945e-05
-5.4135e-05
-1.80358e-05
1.64018e-05
5.35865e-05
-5.19525e-05