/*--------------------------------*- C++ -*----------------------------------*\
| =========                 |                                                 |
| \\      /  F ield         | OpenFOAM: The Open Source CFD Toolbox           |
|  \\    /   O peration     | Version:  v1912                                 |
|   \\  /    A nd           | Website:  www.openfoam.com                      |
|    \\/     M anipulation  |                                                 |
\*---------------------------------------------------------------------------*/
FoamFile
{
    version     2.0;
    format      ascii;
    class       volVectorField;
    location    "0.35";
    object      U;
}
// * * * * * * * * * * * * * * * * * * * * * * * * * * * * * * * * * * * * * //

dimensions      [0 1 -1 0 0 0 0];


internalField   nonuniform List<vector> 
9072
(
(-0.018844 0.0130834 0)
(0.0024899 -0.0070678 0)
(0.0851858 -0.0101624 0)
(0.165367 -0.0076905 0)
(0.220332 -0.00488725 0)
(0.256968 -0.00358465 0)
(0.287808 -0.00342626 0)
(0.31919 -0.0036124 0)
(0.351792 -0.0036677 0)
(0.383797 -0.00345538 0)
(0.412979 -0.00299271 0)
(0.437416 -0.00232114 0)
(0.455445 -0.0014545 0)
(0.465325 -0.000346938 0)
(0.464047 0.00160693 0)
(0.443584 0.00565187 0)
(0.389935 0.0131872 0)
(0.276631 0.0257062 0)
(0.0717454 0.0331224 0)
(-0.160272 -0.00939522 0)
(-0.0934735 -0.0655346 0)
(-0.214746 0.0674176 0)
(-0.356549 -0.0301883 0)
(-0.0177249 0.0306054 0)
(0.0038489 -0.0369597 0)
(0.0877426 -0.0523143 0)
(0.167534 -0.0400953 0)
(0.222536 -0.026272 0)
(0.260467 -0.0196889 0)
(0.293153 -0.0186556 0)
(0.326299 -0.0194155 0)
(0.360414 -0.0196518 0)
(0.393765 -0.0186332 0)
(0.424268 -0.0164015 0)
(0.450126 -0.0131473 0)
(0.469775 -0.00895027 0)
(0.481671 -0.00370547 0)
(0.484046 0.00281211 0)
(0.47501 0.0112961 0)
(0.45432 0.0250012 0)
(0.429681 0.0539044 0)
(0.408085 0.110673 0)
(0.275883 0.126344 0)
(-0.0397253 0.000105187 0)
(-0.356217 0.210362 0)
(-0.300502 -0.207288 0)
(-0.0172527 0.0471477 0)
(0.00598044 -0.0672839 0)
(0.0898063 -0.0935105 0)
(0.165976 -0.0710483 0)
(0.218115 -0.0470094 0)
(0.256011 -0.0360463 0)
(0.29041 -0.0344958 0)
(0.325505 -0.0357641 0)
(0.361062 -0.0359831 0)
(0.395299 -0.0340029 0)
(0.42637 -0.0299367 0)
(0.452712 -0.0241069 0)
(0.472909 -0.0166361 0)
(0.485507 -0.00738001 0)
(0.488893 0.00411174 0)
(0.481283 0.0188897 0)
(0.461063 0.0392711 0)
(0.428275 0.0694631 0)
(0.393668 0.115112 0)
(0.393296 0.179173 0)
(0.248255 0.183112 0)
(-0.022341 0.268887 0)
(-0.0575677 -0.240586 0)
(-0.0165536 0.0624242 0)
(0.00909165 -0.0983426 0)
(0.0919115 -0.133174 0)
(0.162857 -0.0998806 0)
(0.2116 -0.0670614 0)
(0.250054 -0.0530942 0)
(0.287104 -0.0514857 0)
(0.324893 -0.0530825 0)
(0.362338 -0.0529398 0)
(0.397732 -0.0497539 0)
(0.429601 -0.0437602 0)
(0.456699 -0.0353668 0)
(0.477787 -0.024693 0)
(0.491507 -0.011538 0)
(0.496395 0.0046194 0)
(0.491004 0.0247886 0)
(0.474405 0.050826 0)
(0.447481 0.08551 0)
(0.413917 0.130146 0)
(0.38125 0.183135 0)
(0.382188 0.272287 0)
(0.277189 0.287027 0)
(0.192867 -0.177401 0)
(-0.0155891 0.0758896 0)
(0.0129152 -0.129862 0)
(0.0934804 -0.170616 0)
(0.158252 -0.126244 0)
(0.20389 -0.0866422 0)
(0.243728 -0.07125 0)
(0.284066 -0.069959 0)
(0.324828 -0.071556 0)
(0.364243 -0.0706204 0)
(0.400866 -0.065971 0)
(0.43369 -0.057981 0)
(0.461787 -0.0470701 0)
(0.484064 -0.0332923 0)
(0.499235 -0.0163801 0)
(0.505949 0.0042033 0)
(0.503001 0.0293348 0)
(0.489805 0.0603648 0)
(0.46726 0.098923 0)
(0.43855 0.145602 0)
(0.406729 0.197276 0)
(0.39256 0.265029 0)
(0.439915 0.302816 0)
(0.325685 -0.0478225 0)
(-0.0141605 0.0870257 0)
(0.017365 -0.161614 0)
(0.0943314 -0.205312 0)
(0.152722 -0.150204 0)
(0.196183 -0.106171 0)
(0.238236 -0.0908341 0)
(0.282084 -0.0900164 0)
(0.325658 -0.0911658 0)
(0.366868 -0.0890089 0)
(0.404715 -0.0826987 0)
(0.438662 -0.0727036 0)
(0.468032 -0.0593552 0)
(0.491809 -0.0425859 0)
(0.508735 -0.0220568 0)
(0.517522 0.00274981 0)
(0.517101 0.0325237 0)
(0.507033 0.0681432 0)
(0.488078 0.11042 0)
(0.462535 0.159121 0)
(0.43409 0.211864 0)
(0.404142 0.259231 0)
(0.429703 0.287498 0)
(0.334522 0.100847 0)
(-0.0120614 0.0952031 0)
(0.0222437 -0.193239 0)
(0.0945789 -0.236934 0)
(0.14707 -0.172149 0)
(0.189572 -0.126144 0)
(0.234416 -0.112008 0)
(0.281556 -0.111549 0)
(0.327468 -0.111757 0)
(0.370179 -0.108043 0)
(0.40925 -0.0999836 0)
(0.444529 -0.0880427 0)
(0.475474 -0.0723644 0)
(0.501073 -0.0527145 0)
(0.520054 -0.0286869 0)
(0.531139 0.000186491 0)
(0.533306 0.0343946 0)
(0.526126 0.0743957 0)
(0.510154 0.120412 0)
(0.486996 0.171704 0)
(0.4586 0.225374 0)
(0.426237 0.272766 0)
(0.387098 0.291995 0)
(0.281047 0.231585 0)
(-0.00930123 0.0999131 0)
(0.0275605 -0.224186 0)
(0.0946491 -0.265491 0)
(0.14202 -0.192678 0)
(0.184742 -0.146973 0)
(0.232539 -0.134727 0)
(0.282348 -0.134281 0)
(0.32993 -0.133106 0)
(0.373822 -0.127661 0)
(0.414126 -0.1179 0)
(0.450927 -0.104146 0)
(0.483708 -0.0862759 0)
(0.511422 -0.063869 0)
(0.53277 -0.0364596 0)
(0.54647 -0.00362664 0)
(0.551435 0.0349248 0)
(0.547104 0.0792817 0)
(0.533743 0.129206 0)
(0.512412 0.18366 0)
(0.483971 0.240073 0)
(0.446757 0.292771 0)
(0.382996 0.326296 0)
(0.246548 0.342164 0)
(-0.0414265 0.0449879 0)
(-0.1569 0.011299 0)
(-0.236238 0.00743933 0)
(-0.291894 0.00602424 0)
(-0.340174 0.00527334 0)
(-0.381411 0.00435317 0)
(-0.413352 0.00327466 0)
(-0.4348 0.00215856 0)
(-0.445537 0.000956791 0)
(-0.445155 -0.000262337 0)
(-0.435058 -0.00126174 0)
(-0.41637 -0.0022193 0)
(-0.38916 -0.00331758 0)
(-0.353087 -0.004458 0)
(-0.308243 -0.00558997 0)
(-0.254989 -0.00665454 0)
(-0.19414 -0.00762712 0)
(-0.127 -0.00833278 0)
(-0.0551118 -0.00897659 0)
(-0.0421609 0.111379 0)
(-0.172501 0.0541658 0)
(-0.239698 0.0304873 0)
(-0.283618 0.0246002 0)
(-0.323961 0.0217273 0)
(-0.358474 0.017366 0)
(-0.383623 0.0119043 0)
(-0.39815 0.006208 0)
(-0.402212 0.000766137 0)
(-0.396486 -0.00422837 0)
(-0.3819 -0.00887462 0)
(-0.359092 -0.0132414 0)
(-0.328905 -0.0173435 0)
(-0.292248 -0.0211765 0)
(-0.250091 -0.0247698 0)
(-0.203178 -0.0280455 0)
(-0.152459 -0.0307932 0)
(-0.0988044 -0.0329436 0)
(-0.0429161 -0.0348839 0)
(-0.0482452 0.184204 0)
(-0.191417 0.0973609 0)
(-0.247944 0.0494413 0)
(-0.284641 0.041772 0)
(-0.325351 0.0380966 0)
(-0.360843 0.0303654 0)
(-0.386313 0.0204316 0)
(-0.400774 0.0101192 0)
(-0.404587 0.000326109 0)
(-0.398547 -0.008681 0)
(-0.383613 -0.0169387 0)
(-0.360649 -0.024529 0)
(-0.330572 -0.0315268 0)
(-0.294089 -0.0379517 0)
(-0.251972 -0.0437567 0)
(-0.204937 -0.0488913 0)
(-0.153897 -0.0531528 0)
(-0.099801 -0.0563256 0)
(-0.0433452 -0.0593243 0)
(-0.0601322 0.272829 0)
(-0.23002 0.14246 0)
(-0.261926 0.0599603 0)
(-0.285805 0.0580176 0)
(-0.328456 0.0551398 0)
(-0.365859 0.0436802 0)
(-0.391851 0.0289842 0)
(-0.40617 0.0139365 0)
(-0.40962 -0.000229869 0)
(-0.403191 -0.0132397 0)
(-0.387872 -0.0250957 0)
(-0.364584 -0.0358838 0)
(-0.334215 -0.0457605 0)
(-0.297497 -0.0547426 0)
(-0.255108 -0.0628132 0)
(-0.207751 -0.0699023 0)
(-0.156211 -0.0757469 0)
(-0.101418 -0.0800599 0)
(-0.0440538 -0.0842247 0)
(-0.0795458 0.385844 0)
(-0.281368 0.188948 0)
(-0.281734 0.057388 0)
(-0.287006 0.073306 0)
(-0.332806 0.073772 0)
(-0.372927 0.057715 0)
(-0.399572 0.037583 0)
(-0.413578 0.0175813 0)
(-0.416479 -0.00100712 0)
(-0.409489 -0.0180253 0)
(-0.393603 -0.0334507 0)
(-0.369793 -0.0474239 0)
(-0.338936 -0.0601443 0)
(-0.301789 -0.0716765 0)
(-0.258916 -0.0820405 0)
(-0.211032 -0.0911169 0)
(-0.158826 -0.0986172 0)
(-0.103181 -0.10415 0)
(-0.0448083 -0.109535 0)
(-0.105654 0.53114 0)
(-0.358318 0.241922 0)
(-0.306389 0.0292184 0)
(-0.287046 0.0888419 0)
(-0.339734 0.0938432 0)
(-0.382359 0.0723762 0)
(-0.40962 0.0461706 0)
(-0.423076 0.0209892 0)
(-0.42519 -0.00208951 0)
(-0.417442 -0.0230667 0)
(-0.400805 -0.0420728 0)
(-0.376285 -0.0592068 0)
(-0.344791 -0.074753 0)
(-0.307085 -0.0888678 0)
(-0.263655 -0.101506 0)
(-0.21512 -0.112625 0)
(-0.162071 -0.121873 0)
(-0.105355 -0.128656 0)
(-0.045746 -0.135384 0)
(-0.1457 0.708347 0)
(-0.269279 0.268625 0)
(-0.174384 0.0245079 0)
(-0.280601 0.110142 0)
(-0.349161 0.116168 0)
(-0.394857 0.0876682 0)
(-0.422235 0.0545573 0)
(-0.43465 0.0239707 0)
(-0.43571 -0.00351142 0)
(-0.427044 -0.0284805 0)
(-0.409479 -0.0510664 0)
(-0.384062 -0.0713335 0)
(-0.351763 -0.0896329 0)
(-0.313388 -0.10626 0)
(-0.269322 -0.121237 0)
(-0.220037 -0.134496 0)
(-0.165957 -0.14553 0)
(-0.107993 -0.153721 0)
(-0.0468698 -0.161858 0)
(-0.20391 0.921105 0)
(0.133183 0.129681 0)
(0.0874746 0.143586 0)
(-0.278151 0.1596 0)
(-0.361508 0.14113 0)
(-0.41082 0.103438 0)
(-0.437468 0.0624699 0)
(-0.447984 0.0263433 0)
(-0.447698 -0.00541323 0)
(-0.438005 -0.0343086 0)
(-0.41946 -0.0604833 0)
(-0.393045 -0.0838706 0)
(-0.359854 -0.104879 0)
(-0.320707 -0.12395 0)
(-0.275932 -0.141279 0)
(-0.225772 -0.15672 0)
(-0.170543 -0.169694 0)
(-0.111103 -0.179394 0)
(-0.048188 -0.189069 0)
(-0.00463451 0.0979364 0)
(0.035669 -0.263125 0)
(0.0961162 -0.297661 0)
(0.138179 -0.217758 0)
(0.1822 -0.175205 0)
(0.233289 -0.165638 0)
(0.285452 -0.164564 0)
(0.334567 -0.161224 0)
(0.38005 -0.153577 0)
(0.422453 -0.141833 0)
(0.461893 -0.125968 0)
(0.497718 -0.105447 0)
(0.528686 -0.0796165 0)
(0.553313 -0.0479714 0)
(0.570192 -0.0101909 0)
(0.578263 0.0338788 0)
(0.577054 0.0838991 0)
(0.566601 0.139117 0)
(0.547316 0.198386 0)
(0.519137 0.260113 0)
(0.479005 0.322354 0)
(0.414431 0.385212 0)
(0.280724 0.46839 0)
(0.000104364 0.0788798 0)
(0.0473673 -0.32521 0)
(0.0982178 -0.342194 0)
(0.137388 -0.258601 0)
(0.185883 -0.226072 0)
(0.241317 -0.220246 0)
(0.295609 -0.216906 0)
(0.346436 -0.210075 0)
(0.394523 -0.199665 0)
(0.440588 -0.185616 0)
(0.484723 -0.167093 0)
(0.526332 -0.142775 0)
(0.56403 -0.111469 0)
(0.59624 -0.0723992 0)
(0.621212 -0.0253096 0)
(0.637344 0.0279781 0)
(0.642032 0.0872607 0)
(0.634294 0.151647 0)
(0.615695 0.219947 0)
(0.588193 0.291779 0)
(0.552707 0.368524 0)
(0.510297 0.459032 0)
(0.459345 0.584529 0)
(0.0128462 0.0335321 0)
(0.0552151 -0.373411 0)
(0.0857714 -0.385926 0)
(0.128178 -0.304928 0)
(0.178123 -0.280932 0)
(0.228893 -0.274818 0)
(0.276001 -0.26755 0)
(0.319827 -0.257331 0)
(0.361384 -0.244306 0)
(0.400926 -0.22795 0)
(0.438097 -0.207383 0)
(0.471871 -0.180129 0)
(0.502466 -0.145403 0)
(0.532154 -0.104255 0)
(0.565033 -0.0576661 0)
(0.600272 -0.00524311 0)
(0.629923 0.063284 0)
(0.654924 0.143091 0)
(0.668307 0.229312 0)
(0.663121 0.318701 0)
(0.639439 0.404447 0)
(0.614194 0.48946 0)
(0.607214 0.591036 0)
(0.0320995 -0.0981026 0)
(0.173692 -0.399843 0)
(0.128555 -0.396476 0)
(0.142334 -0.347715 0)
(0.193389 -0.329936 0)
(0.248543 -0.323263 0)
(0.307523 -0.316172 0)
(0.369964 -0.307719 0)
(0.436425 -0.297646 0)
(0.5067 -0.283451 0)
(0.580893 -0.261936 0)
(0.669428 -0.236328 0)
(0.77988 -0.208222 0)
(0.892686 -0.170259 0)
(0.991649 -0.116711 0)
(1.04081 -0.0482904 0)
(0.993421 0.0240724 0)
(0.883892 0.109479 0)
(0.773608 0.20741 0)
(0.68835 0.323941 0)
(0.65478 0.417034 0)
(0.668448 0.493603 0)
(0.695122 0.570089 0)
(0.0602226 -0.359042 0)
(0.328635 -0.521021 0)
(0.223571 -0.316171 0)
(0.24577 -0.399201 0)
(0.271047 -0.391482 0)
(0.287257 -0.387735 0)
(0.309325 -0.378368 0)
(0.318945 -0.362684 0)
(0.298331 -0.338111 0)
(0.228526 -0.311158 0)
(0.273215 -0.346059 0)
(0.506645 -0.393259 0)
(0.766822 -0.371842 0)
(1.00369 -0.366663 0)
(1.22706 -0.317788 0)
(1.46589 -0.0330267 0)
(1.7371 0.337039 0)
(1.67992 0.353828 0)
(1.5139 0.427309 0)
(1.18933 0.464981 0)
(1.00942 0.495528 0)
(0.873744 0.518394 0)
(0.780849 0.543094 0)
(-0.0831975 -0.307794 0)
(-0.129055 -0.29961 0)
(0.0184685 -0.38577 0)
(0.0619786 -0.397206 0)
(0.0662269 -0.3893 0)
(0.075858 -0.383197 0)
(0.0770221 -0.365591 0)
(0.0685921 -0.333322 0)
(0.0389758 -0.271171 0)
(-0.00104513 -0.337421 0)
(0.303338 -0.674157 0)
(0.50994 -0.683593 0)
(0.587407 -0.612711 0)
(0.67876 -0.570062 0)
(0.77875 -0.448279 0)
(0.982016 -0.236597 0)
(1.21234 0.0621688 0)
(1.3036 0.289728 0)
(1.33279 0.489 0)
(1.40909 0.709645 0)
(1.3642 0.782745 0)
(1.15815 0.683274 0)
(0.980209 0.626224 0)
(-0.0622787 -0.17058 0)
(-0.0618948 -0.522751 0)
(-0.00822353 -0.441033 0)
(0.0297259 -0.416933 0)
(0.0589305 -0.410921 0)
(0.0848518 -0.400009 0)
(0.10854 -0.378196 0)
(0.132681 -0.340383 0)
(0.146012 -0.225174 0)
(0.223157 -0.526874 0)
(0.242946 -0.8092 0)
(0.179308 -0.637495 0)
(0.199525 -0.6198 0)
(0.301887 -0.673251 0)
(0.414969 -0.629606 0)
(0.606462 -0.511975 0)
(0.892347 -0.188482 0)
(1.0947 0.243554 0)
(1.08968 0.518382 0)
(1.01288 0.5872 0)
(1.10063 0.664102 0)
(1.24553 0.796396 0)
(1.25097 0.784816 0)
(-0.0235614 -0.0986831 0)
(-0.0311433 -0.570208 0)
(0.00560474 -0.478847 0)
(0.0402376 -0.450732 0)
(0.071609 -0.44136 0)
(0.101465 -0.427885 0)
(0.13406 -0.408867 0)
(0.177785 -0.381542 0)
(0.25857 -0.300776 0)
(0.348234 -0.492862 0)
(0.178891 -0.692005 0)
(0.176975 -0.681944 0)
(0.217026 -0.688651 0)
(0.225399 -0.723894 0)
(0.255275 -0.732391 0)
(0.356972 -0.74246 0)
(0.553665 -0.457519 0)
(0.782237 0.0954687 0)
(0.905037 0.542437 0)
(0.840339 0.703487 0)
(0.590188 0.68675 0)
(0.638086 0.5586 0)
(0.948099 0.641732 0)
(0.00260342 -0.0967774 0)
(0.00569437 -0.594205 0)
(0.025933 -0.506785 0)
(0.0539193 -0.482005 0)
(0.0838362 -0.472 0)
(0.115094 -0.460431 0)
(0.150807 -0.448537 0)
(0.196498 -0.435987 0)
(0.26289 -0.424477 0)
(0.349985 -0.465136 0)
(0.314741 -0.599891 0)
(0.253728 -0.683634 0)
(0.237976 -0.688498 0)
(0.21155 -0.70477 0)
(0.171153 -0.736014 0)
(0.119265 -0.780795 0)
(0.154983 -0.669591 0)
(0.422457 -0.12571 0)
(0.63499 0.438295 0)
(0.745991 0.821356 0)
(0.715171 0.828918 0)
(0.676009 0.483497 0)
(0.595707 0.415711 0)
(0.0140134 -0.135814 0)
(0.0315043 -0.606981 0)
(0.0419456 -0.527364 0)
(0.0660782 -0.509893 0)
(0.0935242 -0.501602 0)
(0.123584 -0.493288 0)
(0.157487 -0.486972 0)
(0.196867 -0.484363 0)
(0.242643 -0.490869 0)
(0.293667 -0.515319 0)
(0.320496 -0.571502 0)
(0.290768 -0.635567 0)
(0.248958 -0.656641 0)
(0.210232 -0.661839 0)
(0.157044 -0.670965 0)
(0.0691921 -0.686053 0)
(-0.066724 -0.693147 0)
(-0.0208353 -0.419155 0)
(0.3254 0.187043 0)
(0.603059 0.653835 0)
(0.820189 0.786572 0)
(0.854213 0.585922 0)
(0.796919 0.490267 0)
(0.0175989 -0.187452 0)
(0.0419772 -0.614565 0)
(0.0521177 -0.545671 0)
(0.074641 -0.535135 0)
(0.100198 -0.529385 0)
(0.128288 -0.524052 0)
(0.15892 -0.521128 0)
(0.191687 -0.522366 0)
(0.225397 -0.530535 0)
(0.255335 -0.549367 0)
(0.273497 -0.578337 0)
(0.266676 -0.606347 0)
(0.240484 -0.619654 0)
(0.207626 -0.620716 0)
(0.164402 -0.611595 0)
(0.101761 -0.58847 0)
(0.00225354 -0.542275 0)
(-0.160456 -0.457525 0)
(-0.146458 -0.12369 0)
(0.147098 0.338744 0)
(0.504131 0.539609 0)
(0.7252 0.528426 0)
(0.823542 0.468392 0)
(0.0162356 -0.238869 0)
(0.0435814 -0.623897 0)
(0.0573688 -0.564696 0)
(0.0797292 -0.559074 0)
(0.104267 -0.555582 0)
(0.130635 -0.552354 0)
(0.158348 -0.551058 0)
(0.186487 -0.552728 0)
(0.213178 -0.558672 0)
(0.235147 -0.569613 0)
(0.247424 -0.583892 0)
(0.246885 -0.594966 0)
(0.235534 -0.59741 0)
(0.215232 -0.589314 0)
(0.185221 -0.56804 0)
(0.1445 -0.528393 0)
(0.0935005 -0.460509 0)
(0.0395897 -0.347733 0)
(0.00283743 -0.166887 0)
(0.0681431 0.0776825 0)
(0.263044 0.253841 0)
(0.478632 0.328602 0)
(0.655001 0.339112 0)
(0.0133702 -0.284604 0)
(0.0417405 -0.637784 0)
(0.0594434 -0.5854 0)
(0.0823755 -0.58273 0)
(0.106565 -0.580771 0)
(0.131826 -0.578757 0)
(0.157608 -0.57793 0)
(0.182969 -0.57878 0)
(0.206432 -0.581688 0)
(0.22585 -0.586381 0)
(0.238788 -0.591146 0)
(0.243759 -0.592593 0)
(0.241295 -0.586874 0)
(0.232394 -0.571109 0)
(0.217936 -0.542254 0)
(0.199242 -0.496037 0)
(0.18006 -0.42623 0)
(0.169838 -0.325637 0)
(0.187903 -0.191144 0)
(0.260599 -0.0390006 0)
(0.388762 0.0845136 0)
(0.536412 0.159114 0)
(0.67473 0.196356 0)
(0.01077 -0.324034 0)
(0.039303 -0.655919 0)
(0.059938 -0.60775 0)
(0.0836431 -0.606636 0)
(0.107909 -0.605506 0)
(0.132661 -0.604038 0)
(0.157458 -0.603072 0)
(0.18156 -0.60274 0)
(0.203929 -0.602975 0)
(0.223267 -0.603196 0)
(0.238315 -0.602001 0)
(0.248381 -0.597099 0)
(0.253741 -0.585826 0)
(0.255398 -0.565629 0)
(0.254808 -0.53383 0)
(0.254342 -0.487403 0)
(0.258234 -0.423244 0)
(0.273768 -0.33948 0)
(0.311329 -0.238713 0)
(0.380134 -0.132436 0)
(0.478696 -0.038971 0)
(0.592617 0.0304482 0)
(0.706612 0.0776303 0)
(0.00893584 -0.358431 0)
(0.0372945 -0.677097 0)
(0.0598585 -0.6314 0)
(0.0843035 -0.631014 0)
(0.108892 -0.63021 0)
(0.133609 -0.628877 0)
(0.158162 -0.627546 0)
(0.182053 -0.626118 0)
(0.204632 -0.624319 0)
(0.22517 -0.621517 0)
(0.243036 -0.616577 0)
(0.258001 -0.607876 0)
(0.270445 -0.593493 0)
(0.281345 -0.571438 0)
(0.292299 -0.539709 0)
(0.305729 -0.496428 0)
(0.32518 -0.440292 0)
(0.35548 -0.371511 0)
(0.401953 -0.293233 0)
(0.468089 -0.212409 0)
(0.55241 -0.137894 0)
(0.648075 -0.0756836 0)
(0.746892 -0.0262291 0)
(0.00781281 -0.389435 0)
(0.0359271 -0.7002 0)
(0.0597153 -0.656011 0)
(0.0848087 -0.655934 0)
(0.109848 -0.655177 0)
(0.134862 -0.65379 0)
(0.159685 -0.652084 0)
(0.184028 -0.649839 0)
(0.207546 -0.646703 0)
(0.229892 -0.642072 0)
(0.250824 -0.635033 0)
(0.270391 -0.624391 0)
(0.289059 -0.608763 0)
(0.30777 -0.58671 0)
(0.327998 -0.556862 0)
(0.351808 -0.518127 0)
(0.381868 -0.470062 0)
(0.421253 -0.413411 0)
(0.472762 -0.350665 0)
(0.53775 -0.286024 0)
(0.615029 -0.224241 0)
(0.700881 -0.168698 0)
(0.790647 -0.120199 0)
(0.00723384 -0.418474 0)
(0.0351222 -0.724444 0)
(0.059706 -0.681338 0)
(0.0853603 -0.681396 0)
(0.110903 -0.680585 0)
(0.136408 -0.679114 0)
(0.161808 -0.677158 0)
(0.186983 -0.674446 0)
(0.211807 -0.670612 0)
(0.236179 -0.665108 0)
(0.260103 -0.657204 0)
(0.283808 -0.646004 0)
(0.307811 -0.630517 0)
(0.33297 -0.609737 0)
(0.360545 -0.582761 0)
(0.392167 -0.548975 0)
(0.429755 -0.508295 0)
(0.475292 -0.461427 0)
(0.530317 -0.410075 0)
(0.595345 -0.356784 0)
(0.669459 -0.304268 0)
(0.750389 -0.254517 0)
(0.835266 -0.20823 0)
(0.00702532 -0.446605 0)
(0.0347121 -0.749337 0)
(0.0598412 -0.707226 0)
(0.0859804 -0.707378 0)
(0.112041 -0.706517 0)
(0.138127 -0.705031 0)
(0.164256 -0.703018 0)
(0.190438 -0.700198 0)
(0.216687 -0.696214 0)
(0.243067 -0.690595 0)
(0.269745 -0.682755 0)
(0.297044 -0.672018 0)
(0.325507 -0.657665 0)
(0.355906 -0.639 0)
(0.38927 -0.615432 0)
(0.426875 -0.586621 0)
(0.470095 -0.552582 0)
(0.520235 -0.513818 0)
(0.578208 -0.471389 0)
(0.644185 -0.426779 0)
(0.717458 -0.381549 0)
(0.796499 -0.33689 0)
(0.879386 -0.293327 0)
(0.00703948 -0.474476 0)
(0.0345364 -0.774565 0)
(0.0600439 -0.733567 0)
(0.0866008 -0.733838 0)
(0.113153 -0.732998 0)
(0.139844 -0.731622 0)
(0.166754 -0.729766 0)
(0.193973 -0.727161 0)
(0.221615 -0.723487 0)
(0.249853 -0.718342 0)
(0.278943 -0.71126 0)
(0.309276 -0.701732 0)
(0.341392 -0.689222 0)
(0.375983 -0.673239 0)
(0.413919 -0.653399 0)
(0.456189 -0.629485 0)
(0.503812 -0.601517 0)
(0.557706 -0.569772 0)
(0.618452 -0.534805 0)
(0.686098 -0.497392 0)
(0.760091 -0.458355 0)
(0.839317 -0.418365 0)
(0.922335 -0.377758 0)
(0.00721078 -0.502481 0)
(0.0344722 -0.799912 0)
(0.0602441 -0.760256 0)
(0.0871403 -0.76071 0)
(0.114123 -0.760007 0)
(0.141381 -0.758895 0)
(0.169038 -0.757403 0)
(0.197233 -0.755297 0)
(0.226138 -0.752297 0)
(0.255999 -0.748075 0)
(0.287133 -0.742269 0)
(0.319955 -0.734482 0)
(0.354997 -0.724316 0)
(0.392903 -0.71142 0)
(0.434424 -0.69552 0)
(0.480371 -0.676464 0)
(0.531544 -0.65422 0)
(0.588652 -0.628873 0)
(0.652137 -0.600597 0)
(0.722031 -0.569636 0)
(0.797898 -0.536287 0)
(0.878851 -0.500815 0)
(0.963663 -0.46331 0)
(0.00753496 -0.530953 0)
(0.034436 -0.825222 0)
(0.0603966 -0.787213 0)
(0.0875376 -0.787915 0)
(0.11486 -0.787472 0)
(0.14259 -0.786775 0)
(0.170875 -0.785842 0)
(0.199895 -0.784473 0)
(0.229862 -0.782438 0)
(0.261061 -0.779483 0)
(0.293845 -0.775324 0)
(0.328641 -0.76966 0)
(0.365969 -0.762195 0)
(0.406442 -0.752675 0)
(0.450744 -0.740896 0)
(0.499585 -0.72672 0)
(0.553661 -0.710066 0)
(0.61359 -0.690865 0)
(0.679794 -0.669 0)
(0.752363 -0.644284 0)
(0.830973 -0.616557 0)
(0.914868 -0.585708 0)
(1.0029 -0.551499 0)
(0.0079662 -0.560148 0)
(0.0343719 -0.850357 0)
(0.0604487 -0.814357 0)
(0.0877291 -0.815352 0)
(0.115267 -0.815276 0)
(0.143319 -0.815128 0)
(0.172057 -0.814913 0)
(0.201683 -0.814473 0)
(0.232444 -0.813636 0)
(0.264654 -0.812207 0)
(0.298675 -0.80997 0)
(0.334944 -0.806704 0)
(0.37398 -0.8022 0)
(0.41637 -0.796278 0)
(0.462767 -0.788787 0)
(0.513849 -0.779588 0)
(0.570278 -0.768556 0)
(0.632671 -0.755525 0)
(0.70151 -0.740155 0)
(0.777012 -0.72188 0)
(0.859016 -0.700107 0)
(0.946908 -0.674316 0)
(1.03957 -0.643823 0)
(0.00839673 -0.590132 0)
(0.0342404 -0.875224 0)
(0.0603559 -0.841581 0)
(0.0876379 -0.842892 0)
(0.115232 -0.843269 0)
(0.143422 -0.84377 0)
(0.172392 -0.844397 0)
(0.202368 -0.845039 0)
(0.233623 -0.845575 0)
(0.266476 -0.84586 0)
(0.301306 -0.845747 0)
(0.338554 -0.845084 0)
(0.378735 -0.843736 0)
(0.422432 -0.841592 0)
(0.470293 -0.838547 0)
(0.522995 -0.834479 0)
(0.581231 -0.829239 0)
(0.645679 -0.822599 0)
(0.716943 -0.814077 0)
(0.795463 -0.802798 0)
(0.88135 -0.787745 0)
(0.974229 -0.767912 0)
(1.07308 -0.74199 0)
(0.00873345 -0.620783 0)
(0.0340222 -0.89979 0)
(0.0600888 -0.868742 0)
(0.0872056 -0.870369 0)
(0.114669 -0.871258 0)
(0.142784 -0.872481 0)
(0.171749 -0.874045 0)
(0.201804 -0.875879 0)
(0.233228 -0.877905 0)
(0.266345 -0.880036 0)
(0.301537 -0.882183 0)
(0.33925 -0.884261 0)
(0.380002 -0.886209 0)
(0.424381 -0.887979 0)
(0.473039 -0.889526 0)
(0.526692 -0.89077 0)
(0.586103 -0.891571 0)
(0.652057 -0.89169 0)
(0.725357 -0.890595 0)
(0.806762 -0.88721 0)
(0.896803 -0.880127 0)
(0.995551 -0.867775 0)
(1.10229 -0.848024 0)
(0.00890314 -0.651846 0)
(0.0337534 -0.924078 0)
(0.0596435 -0.895673 0)
(0.086404 -0.897595 0)
(0.113534 -0.899035 0)
(0.141352 -0.901033 0)
(0.170069 -0.903599 0)
(0.199926 -0.906692 0)
(0.231191 -0.910276 0)
(0.264188 -0.914318 0)
(0.29929 -0.918789 0)
(0.336939 -0.923678 0)
(0.377661 -0.928991 0)
(0.422045 -0.934759 0)
(0.47077 -0.941012 0)
(0.524596 -0.94774 0)
(0.584377 -0.954861 0)
(0.651064 -0.962197 0)
(0.725718 -0.969284 0)
(0.809513 -0.974998 0)
(0.903604 -0.977667 0)
(1.00882 -0.975147 0)
(1.12522 -0.964344 0)
(0.00878784 -0.682984 0)
(0.0335701 -0.948153 0)
(0.0590499 -0.92216 0)
(0.0852279 -0.924366 0)
(0.111814 -0.926387 0)
(0.139114 -0.929195 0)
(0.167339 -0.932797 0)
(0.196714 -0.937175 0)
(0.227501 -0.942331 0)
(0.259998 -0.948283 0)
(0.294561 -0.955071 0)
(0.331629 -0.962759 0)
(0.371709 -0.971427 0)
(0.415392 -0.981196 0)
(0.463374 -0.992189 0)
(0.516459 -1.0045 0)
(0.575599 -1.01818 0)
(0.64193 -1.03321 0)
(0.716819 -1.04931 0)
(0.801953 -1.06556 0)
(0.899309 -1.08027 0)
(1.01089 -1.09093 0)
(1.1382 -1.09352 0)
(0.00837273 -0.713812 0)
(0.0335816 -0.972062 0)
(0.0582862 -0.947927 0)
(0.0836454 -0.950471 0)
(0.109486 -0.9531 0)
(0.136051 -0.95673 0)
(0.163532 -0.96137 0)
(0.192142 -0.967023 0)
(0.222122 -0.973717 0)
(0.253747 -0.981525 0)
(0.287352 -0.990559 0)
(0.32334 -1.00095 0)
(0.362191 -1.01286 0)
(0.404467 -1.02651 0)
(0.450858 -1.04215 0)
(0.502185 -1.06 0)
(0.559469 -1.08034 0)
(0.624013 -1.10338 0)
(0.697486 -1.12926 0)
(0.782108 -1.1575 0)
(0.880803 -1.18685 0)
(0.997112 -1.21493 0)
(1.13494 -1.23738 0)
(0.00792082 -0.744104 0)
(0.0336214 -0.995645 0)
(0.0572025 -0.972711 0)
(0.0815525 -0.975707 0)
(0.106457 -0.978969 0)
(0.13208 -0.983411 0)
(0.158579 -0.989056 0)
(0.186149 -0.99593 0)
(0.21501 -1.00409 0)
(0.245419 -1.01366 0)
(0.27767 -1.02481 0)
(0.312121 -1.03773 0)
(0.349198 -1.05267 0)
(0.389403 -1.06994 0)
(0.433374 -1.08994 0)
(0.481904 -1.11308 0)
(0.536002 -1.13989 0)
(0.597047 -1.17097 0)
(0.666904 -1.20697 0)
(0.748184 -1.24825 0)
(0.844645 -1.29456 0)
(0.961501 -1.34464 0)
(1.10582 -1.39516 0)
(0.00773225 -0.773925 0)
(0.0333074 -1.01847 0)
(0.0556117 -0.996365 0)
(0.0788435 -0.999902 0)
(0.102646 -1.0038 0)
(0.127139 -1.00903 0)
(0.15245 -1.01561 0)
(0.178742 -1.02362 0)
(0.206223 -1.03315 0)
(0.235117 -1.04435 0)
(0.26567 -1.05742 0)
(0.298182 -1.07261 0)
(0.333005 -1.09026 0)
(0.370552 -1.11077 0)
(0.411366 -1.13467 0)
(0.456127 -1.16257 0)
(0.50573 -1.19528 0)
(0.561452 -1.23385 0)
(0.625095 -1.27959 0)
(0.699304 -1.33392 0)
(0.788184 -1.39821 0)
(0.898124 -1.47362 0)
(1.03902 -1.56018 0)
(0.00783712 -0.803434 0)
(0.0323989 -1.04004 0)
(0.0534465 -1.01887 0)
(0.0755005 -1.02293 0)
(0.0980722 -1.02744 0)
(0.121272 -1.03339 0)
(0.145215 -1.04084 0)
(0.170045 -1.04988 0)
(0.195932 -1.06064 0)
(0.223065 -1.07328 0)
(0.251635 -1.08804 0)
(0.281876 -1.10521 0)
(0.314052 -1.12517 0)
(0.348467 -1.14841 0)
(0.38552 -1.17555 0)
(0.425705 -1.2074 0)
(0.469679 -1.24501 0)
(0.518395 -1.28984 0)
(0.573245 -1.34383 0)
(0.636362 -1.40954 0)
(0.7113 -1.49028 0)
(0.804162 -1.59065 0)
(0.925218 -1.71611 0)
(0.0082238 -0.832729 0)
(0.0309396 -1.06004 0)
(0.0507502 -1.04022 0)
(0.0715539 -1.04468 0)
(0.0927718 -1.04973 0)
(0.114528 -1.05633 0)
(0.136939 -1.06455 0)
(0.160132 -1.07451 0)
(0.184239 -1.08634 0)
(0.209397 -1.10022 0)
(0.235751 -1.1164 0)
(0.263457 -1.1352 0)
(0.292685 -1.15701 0)
(0.323617 -1.18239 0)
(0.356474 -1.212 0)
(0.391516 -1.24676 0)
(0.429056 -1.28787 0)
(0.469551 -1.33706 0)
(0.513677 -1.39672 0)
(0.562508 -1.47026 0)
(0.617983 -1.5626 0)
(0.683742 -1.68139 0)
(0.766269 -1.83707 0)
(0.00903336 -0.862069 0)
(0.0290744 -1.0782 0)
(0.0475963 -1.0603 0)
(0.0670262 -1.06502 0)
(0.0867441 -1.07053 0)
(0.106901 -1.0777 0)
(0.127621 -1.0866 0)
(0.149004 -1.09734 0)
(0.171148 -1.11007 0)
(0.194149 -1.12497 0)
(0.218088 -1.14228 0)
(0.243053 -1.16233 0)
(0.269121 -1.18552 0)
(0.296339 -1.21239 0)
(0.324751 -1.24362 0)
(0.35436 -1.28013 0)
(0.385106 -1.32315 0)
(0.416879 -1.37442 0)
(0.449513 -1.43649 0)
(0.482747 -1.51298 0)
(0.516262 -1.60939 0)
(0.549728 -1.73449 0)
(0.58283 -1.89983 0)
(0.0103086 -0.892024 0)
(0.0269041 -1.09429 0)
(0.0440714 -1.07892 0)
(0.0619715 -1.08379 0)
(0.0800328 -1.08969 0)
(0.0984395 -1.09735 0)
(0.117316 -1.10681 0)
(0.136735 -1.1182 0)
(0.156762 -1.13165 0)
(0.177447 -1.14734 0)
(0.198822 -1.1655 0)
(0.220906 -1.18643 0)
(0.24368 -1.21051 0)
(0.267081 -1.23825 0)
(0.290985 -1.27028 0)
(0.315161 -1.3074 0)
(0.339202 -1.35072 0)
(0.362494 -1.40183 0)
(0.384126 -1.46301 0)
(0.402641 -1.53745 0)
(0.415634 -1.62992 0)
(0.419206 -1.74812 0)
(0.407182 -1.90113 0)
(0.0118506 -0.92317 0)
(0.0244934 -1.10817 0)
(0.0402624 -1.09588 0)
(0.0564822 -1.10083 0)
(0.0727446 -1.10707 0)
(0.0892707 -1.11511 0)
(0.106176 -1.12504 0)
(0.123514 -1.13694 0)
(0.141308 -1.15094 0)
(0.159571 -1.16721 0)
(0.178291 -1.18594 0)
(0.19742 -1.2074 0)
(0.216868 -1.23193 0)
(0.236476 -1.25997 0)
(0.255985 -1.29204 0)
(0.274972 -1.32876 0)
(0.292764 -1.37101 0)
(0.308394 -1.42005 0)
(0.320465 -1.47766 0)
(0.326748 -1.54606 0)
(0.323655 -1.62852 0)
(0.305505 -1.73035 0)
(0.263505 -1.85737 0)
(0.0133286 -0.955732 0)
(0.0218992 -1.11987 0)
(0.0362216 -1.111 0)
(0.0506381 -1.11601 0)
(0.0649853 -1.12253 0)
(0.0795303 -1.1309 0)
(0.0943807 -1.14119 0)
(0.109555 -1.15348 0)
(0.125049 -1.16787 0)
(0.140839 -1.1845 0)
(0.15687 -1.20355 0)
(0.173051 -1.22523 0)
(0.189238 -1.24983 0)
(0.205192 -1.27768 0)
(0.220549 -1.30915 0)
(0.234754 -1.34467 0)
(0.246992 -1.38479 0)
(0.256138 -1.43043 0)
(0.26058 -1.48271 0)
(0.257831 -1.54274 0)
(0.244128 -1.6121 0)
(0.213742 -1.69355 0)
(0.158108 -1.79055 0)
(0.014424 -0.989374 0)
(0.019149 -1.12958 0)
(0.0319631 -1.12414 0)
(0.0444873 -1.12924 0)
(0.0568409 -1.136 0)
(0.0693462 -1.14464 0)
(0.082087 -1.1552 0)
(0.0950586 -1.16776 0)
(0.10823 -1.18239 0)
(0.121547 -1.19922 0)
(0.134924 -1.21836 0)
(0.148245 -1.24 0)
(0.161319 -1.26435 0)
(0.173848 -1.29161 0)
(0.185398 -1.32201 0)
(0.195357 -1.35573 0)
(0.20291 -1.39308 0)
(0.206927 -1.4346 0)
(0.205774 -1.48073 0)
(0.197137 -1.53163 0)
(0.177738 -1.58747 0)
(0.142806 -1.64879 0)
(0.0852326 -1.71668 0)
(0.0148765 -1.02321 0)
(0.0162584 -1.13752 0)
(0.0275026 -1.13521 0)
(0.0380827 -1.14044 0)
(0.0484043 -1.14742 0)
(0.0588474 -1.15627 0)
(0.0694683 -1.16703 0)
(0.0802419 -1.17976 0)
(0.0911202 -1.19451 0)
(0.102031 -1.21138 0)
(0.112875 -1.23046 0)
(0.123507 -1.25186 0)
(0.13371 -1.27571 0)
(0.143153 -1.3021 0)
(0.151378 -1.33108 0)
(0.157803 -1.3627 0)
(0.161689 -1.39703 0)
(0.161957 -1.43419 0)
(0.157105 -1.47411 0)
(0.145215 -1.51628 0)
(0.123763 -1.55989 0)
(0.0892644 -1.60387 0)
(0.0367147 -1.64683 0)
(0.014489 -1.05609 0)
(0.0133047 -1.14396 0)
(0.022908 -1.14426 0)
(0.0315272 -1.14966 0)
(0.0398288 -1.15683 0)
(0.0482416 -1.16584 0)
(0.0567919 -1.17675 0)
(0.0654383 -1.18958 0)
(0.0741227 -1.20437 0)
(0.0827721 -1.22118 0)
(0.0912792 -1.24008 0)
(0.0994826 -1.26111 0)
(0.107156 -1.28432 0)
(0.113973 -1.30967 0)
(0.119514 -1.33712 0)
(0.12327 -1.36658 0)
(0.124553 -1.39791 0)
(0.122394 -1.43085 0)
(0.115532 -1.46498 0)
(0.102464 -1.49945 0)
(0.0813382 -1.53285 0)
(0.049856 -1.56323 0)
(0.00509181 -1.58768 0)
(0.0131436 -1.0861 0)
(0.0104129 -1.14893 0)
(0.0182713 -1.1512 0)
(0.0249311 -1.1568 0)
(0.0312794 -1.16413 0)
(0.0377435 -1.17329 0)
(0.0443195 -1.18429 0)
(0.0509565 -1.19717 0)
(0.0575951 -1.21194 0)
(0.0641658 -1.22864 0)
(0.0705621 -1.24729 0)
(0.0766291 -1.2679 0)
(0.0821563 -1.29041 0)
(0.0868643 -1.31471 0)
(0.0904068 -1.34068 0)
(0.0923316 -1.36811 0)
(0.0920276 -1.39663 0)
(0.0886998 -1.42576 0)
(0.0813665 -1.45485 0)
(0.068847 -1.48281 0)
(0.0498031 -1.50803 0)
(0.0228141 -1.52828 0)
(-0.013514 -1.5402 0)
(0.0107395 -1.1137 0)
(0.00764937 -1.15282 0)
(0.0136097 -1.15649 0)
(0.018306 -1.16231 0)
(0.022794 -1.1698 0)
(0.0274045 -1.17908 0)
(0.0321026 -1.19017 0)
(0.0368421 -1.20307 0)
(0.0415716 -1.21782 0)
(0.0462259 -1.23441 0)
(0.0507136 -1.25283 0)
(0.0549118 -1.27304 0)
(0.0586476 -1.29494 0)
(0.0617149 -1.31836 0)
(0.0638354 -1.34308 0)
(0.0646386 -1.36877 0)
(0.0636643 -1.39495 0)
(0.0603118 -1.42098 0)
(0.0538507 -1.446 0)
(0.0434006 -1.46881 0)
(0.0280046 -1.48774 0)
(0.00680378 -1.5007 0)
(-0.020845 -1.50487 0)
(0.00687975 -1.13033 0)
(0.00502826 -1.15542 0)
(0.00885211 -1.16002 0)
(0.0116115 -1.16602 0)
(0.0143442 -1.17367 0)
(0.0171844 -1.18304 0)
(0.020089 -1.19417 0)
(0.0230243 -1.20708 0)
(0.0259507 -1.22177 0)
(0.0288207 -1.23825 0)
(0.0315699 -1.25646 0)
(0.0341164 -1.27633 0)
(0.0363483 -1.29773 0)