# vtk DataFile Version 2.0
gauge_2
ASCII
DATASET POLYDATA
POINTS 85 double
0.2 0.0329993 0.005
0.2 0.0359992 0.005
0.2 0.0389992 0.005
0.2 0.0419991 0.005
0.2 0.044999 0.005
0.2 0.047999 0.005
0.2 0.0543799 0.005
0.2 0.0607609 0.005
0.2 0.0671419 0.005
0.2 0.0735228 0.005
0.2 0.0799038 0.005
0.2 0.0862847 0.005
0.2 0.0926657 0.005
0.2 0.0990467 0.005
0.2 0.105428 0.005
0.2 0.111809 0.005
0.2 0.11819 0.005
0.2 0.124571 0.005
0.2 0.130952 0.005
0.2 0.137332 0.005
0.2 0.143713 0.005
0.2 0.150094 0.005
0.2 0.156475 0.005
0.2 0.162856 0.005
0.2 0.169237 0.005
0.2 0.175618 0.005
0.2 0.181999 0.005
0.2 0.18838 0.005
0.2 0.194761 0.005
0.2 0.201142 0.005
0.2 0.207523 0.005
0.2 0.213904 0.005
0.2 0.220285 0.005
0.2 0.226666 0.005
0.2 0.233047 0.005
0.2 0.239428 0.005
0.2 0.245809 0.005
0.2 0.25219 0.005
0.2 0.258571 0.005
0.2 0.264952 0.005
0.2 0.271333 0.005
0.2 0.277714 0.005
0.2 0.284095 0.005
0.2 0.290476 0.005
0.2 0.296857 0.005
0.2 0.303238 0.005
0.2 0.309619 0.005
0.2 0.315999 0.005
0.2 0.32238 0.005
0.2 0.328761 0.005
0.2 0.335142 0.005
0.2 0.341523 0.005
0.2 0.347904 0.005
0.2 0.354285 0.005
0.2 0.360666 0.005
0.2 0.367047 0.005
0.2 0.373428 0.005
0.2 0.379809 0.005
0.2 0.38619 0.005
0.2 0.392571 0.005
0.2 0.398952 0.005
0.2 0.405333 0.005
0.2 0.411714 0.005
0.2 0.418095 0.005
0.2 0.424476 0.005
0.2 0.430857 0.005
0.2 0.437238 0.005
0.2 0.443619 0.005
0.2 0.45 0.005
0.2 0.456381 0.005
0.2 0.462762 0.005
0.2 0.469143 0.005
0.2 0.475524 0.005
0.2 0.481905 0.005
0.2 0.488286 0.005
0.2 0.494666 0.005
0.2 0.501047 0.005
0.2 0.507428 0.005
0.2 0.513809 0.005
0.2 0.52019 0.005
0.2 0.526571 0.005
0.2 0.532952 0.005
0.2 0.539333 0.005
0.2 0.545714 0.005
0.2 0.552095 0.005
POINT_DATA 85
 FIELD attributes 1
alpha.water 1 85 float
1 1 1 0.999847 0.957413 0.881677 0.851283 0.82569 0.485556 0.138372 0.0827855 0.0503137 0.00910917 0.000822401 0.000218476 0.000212691 0.000214364 0.0213686 0.0967164 0.150924 0.134441 0.0602998 0.00142005 0.000250785 0.000461144 0.00584814 0.0173973 0.0236273 0.0167867 0.00576875 0.00148837 0.00123979 0.00371268 0.00651876 0.00657176 0.00608181 0.00400554 0.00124732 0.000110328 4.40764e-05 1.80552e-06 1.0675e-09 3.24693e-10 2.70027e-10 1.07259e-10 4.2354e-11 3.09534e-11 2.60674e-11 2.55299e-11 2.74933e-11 7.35995e-11 4.98202e-08 1.17217e-06 2.03018e-06 1.53695e-06 1.3823e-06 1.64841e-06 0.000370464 0.00343189 0.00642799 0.00584146 0.00259063 0.000114842 -1.72089e-11 3.01431e-11 6.18093e-11 4.60159e-11 1.45092e-11 4.28226e-12 2.39497e-12 1.66089e-12 1.65077e-12 3.22388e-12 1.60461e-11 6.12525e-11 5.7478e-11 3.85283e-11 7.08843e-11 7.14991e-11 4.14026e-11 1.33516e-11 1.16117e-12 1.19136e-14 6.51069e-16 6.13019e-16
