# vtk DataFile Version 2.0
gauge_2
ASCII
DATASET POLYDATA
POINTS 85 double
0.2 0.0329993 0.005
0.2 0.0359992 0.005
0.2 0.0389992 0.005
0.2 0.0419991 0.005
0.2 0.044999 0.005
0.2 0.047999 0.005
0.2 0.0543799 0.005
0.2 0.0607609 0.005
0.2 0.0671419 0.005
0.2 0.0735228 0.005
0.2 0.0799038 0.005
0.2 0.0862847 0.005
0.2 0.0926657 0.005
0.2 0.0990467 0.005
0.2 0.105428 0.005
0.2 0.111809 0.005
0.2 0.11819 0.005
0.2 0.124571 0.005
0.2 0.130952 0.005
0.2 0.137332 0.005
0.2 0.143713 0.005
0.2 0.150094 0.005
0.2 0.156475 0.005
0.2 0.162856 0.005
0.2 0.169237 0.005
0.2 0.175618 0.005
0.2 0.181999 0.005
0.2 0.18838 0.005
0.2 0.194761 0.005
0.2 0.201142 0.005
0.2 0.207523 0.005
0.2 0.213904 0.005
0.2 0.220285 0.005
0.2 0.226666 0.005
0.2 0.233047 0.005
0.2 0.239428 0.005
0.2 0.245809 0.005
0.2 0.25219 0.005
0.2 0.258571 0.005
0.2 0.264952 0.005
0.2 0.271333 0.005
0.2 0.277714 0.005
0.2 0.284095 0.005
0.2 0.290476 0.005
0.2 0.296857 0.005
0.2 0.303238 0.005
0.2 0.309619 0.005
0.2 0.315999 0.005
0.2 0.32238 0.005
0.2 0.328761 0.005
0.2 0.335142 0.005
0.2 0.341523 0.005
0.2 0.347904 0.005
0.2 0.354285 0.005
0.2 0.360666 0.005
0.2 0.367047 0.005
0.2 0.373428 0.005
0.2 0.379809 0.005
0.2 0.38619 0.005
0.2 0.392571 0.005
0.2 0.398952 0.005
0.2 0.405333 0.005
0.2 0.411714 0.005
0.2 0.418095 0.005
0.2 0.424476 0.005
0.2 0.430857 0.005
0.2 0.437238 0.005
0.2 0.443619 0.005
0.2 0.45 0.005
0.2 0.456381 0.005
0.2 0.462762 0.005
0.2 0.469143 0.005
0.2 0.475524 0.005
0.2 0.481905 0.005
0.2 0.488286 0.005
0.2 0.494666 0.005
0.2 0.501047 0.005
0.2 0.507428 0.005
0.2 0.513809 0.005
0.2 0.52019 0.005
0.2 0.526571 0.005
0.2 0.532952 0.005
0.2 0.539333 0.005
0.2 0.545714 0.005
0.2 0.552095 0.005
POINT_DATA 85
 FIELD attributes 1
alpha.water 1 85 float
1 1 1 0.999999 0.987938 0.806348 0.30993 0.483329 0.865434 0.758076 0.337121 0.0229464 0.011287 0.000204266 0.000203003 0.000202956 0.000203726 0.00170861 0.0550622 0.130809 0.1406 0.0642827 0.0011394 0.000198645 0.000201455 0.000207747 0.0004747 0.00868182 0.0209138 0.0255044 0.0256426 0.0248761 0.0233916 0.017617 0.0095158 0.00405301 0.00226389 0.00554928 0.00526474 0.0010795 4.23808e-08 4.82716e-10 1.8987e-10 1.8048e-10 1.61963e-10 1.43893e-10 1.39208e-10 1.43627e-10 1.4216e-10 1.17324e-10 9.32151e-11 8.89717e-11 9.56527e-11 3.53966e-10 5.37179e-07 1.83842e-06 1.62661e-06 6.23387e-07 2.59705e-05 0.00143884 0.00483494 0.00683007 0.00532776 0.00195159 3.21282e-05 7.29786e-11 2.20538e-10 1.95207e-10 5.12487e-11 1.94339e-11 8.85371e-12 4.58665e-12 3.09354e-12 2.16526e-12 1.32319e-12 6.27024e-13 3.03614e-13 1.76852e-13 5.9817e-14 9.82858e-15 5.02554e-15 1.79921e-15 2.5564e-16 4.58022e-17 7.39454e-18
