/*--------------------------------*- C++ -*----------------------------------*\
| =========                 |                                                 |
| \\      /  F ield         | OpenFOAM: The Open Source CFD Toolbox           |
|  \\    /   O peration     | Version:  v1912                                 |
|   \\  /    A nd           | Website:  www.openfoam.com                      |
|    \\/     M anipulation  |                                                 |
\*---------------------------------------------------------------------------*/
FoamFile
{
    version     2.0;
    format      ascii;
    class       surfaceScalarField;
    location    "0.45";
    object      alphaPhi0.water;
}
// * * * * * * * * * * * * * * * * * * * * * * * * * * * * * * * * * * * * * //

dimensions      [0 3 -1 0 0 0 0];
oriented        oriented;


internalField   nonuniform List<scalar> 
17936
(
-1.31012e-06
2.78425e-06
-1.47412e-06
1.80067e-06
-1.13081e-06
-6.69858e-07
-3.70119e-07
2.30769e-06
-1.93758e-06
-4.32166e-06
6.15563e-06
-1.83397e-06
-7.68368e-06
8.87539e-06
-1.19171e-06
-9.75826e-06
1.03892e-05
-6.30925e-07
-1.08352e-05
1.11604e-05
-3.25239e-07
-1.1419e-05
1.16513e-05
-2.32331e-07
-1.18837e-05
1.213e-05
-2.46263e-07
-1.23936e-05
1.26706e-05
-2.77041e-07
-1.29526e-05
1.32281e-05
-2.75585e-07
-1.34852e-05
1.37113e-05
-2.26118e-07
-1.38946e-05
1.40223e-05
-1.2767e-07
-1.40791e-05
1.40352e-05
4.38783e-08
-1.38405e-05
1.34491e-05
3.91376e-07
-1.28028e-05
1.18202e-05
9.82533e-07
-1.03906e-05
8.37648e-06
2.01414e-06
-5.68472e-06
2.40399e-06
3.28073e-06
9.5344e-07
-3.03023e-06
2.46832e-06
4.65551e-06
-5.57893e-06
8.95304e-07
2.9185e-06
2.15165e-06
-5.24664e-06
1.09157e-06
-1.04434e-05
9.33926e-06
1.35092e-05
-7.72121e-06
-5.78736e-06
-4.21846e-06
5.61539e-06
-1.39692e-06
1.7859e-06
-1.03792e-06
1.40204e-06
-2.15001e-06
-5.28994e-07
2.48969e-06
3.90016e-06
-5.86086e-06
-4.48282e-06
6.27523e-06
3.67364e-06
-5.46604e-06
-7.7601e-06
8.92133e-06
2.39866e-06
-3.5599e-06
-9.79545e-06
1.04421e-05
1.29724e-06
-1.94389e-06
-1.09252e-05
1.13024e-05
6.96949e-07
-1.07418e-06
-1.16204e-05
1.19135e-05
5.06886e-07
-7.99908e-07
-1.22037e-05
1.25029e-05
5.25219e-07
-8.24439e-07
-1.28143e-05
1.31346e-05
5.81241e-07
-9.01514e-07
-1.34563e-05
1.37695e-05
5.78371e-07
-8.91569e-07
-1.40633e-05
1.43267e-05
4.83493e-07
-7.46882e-07
-1.45492e-05
1.47214e-05
2.95421e-07
-4.67599e-07
-1.48337e-05
1.48774e-05
1.60538e-08
-5.97541e-08
-1.48466e-05
1.47374e-05
-3.90651e-07
4.99789e-07
-1.45557e-05
1.43192e-05
-1.09686e-06
1.33337e-06
-1.40664e-05
1.3854e-05
-2.60595e-06
2.81838e-06
-1.36688e-05
1.32772e-05
-5.49809e-06
5.88967e-06
-1.20416e-05
9.24643e-06
-7.21901e-06
1.00142e-05
-5.12505e-06
7.5214e-07
-2.9865e-06
7.39398e-06
3.39867e-06
-7.07256e-06
5.30891e-06
-1.63489e-06
1.09295e-05
-1.33971e-05
-1.55208e-05
1.80961e-05
1.1984e-05
-8.1944e-06
1.18454e-05
-1.5288e-05
-6.98052e-06
8.3145e-06
-1.33398e-06
1.69261e-06
-8.61707e-07
2.93897e-06
-3.76987e-06
-7.46483e-07
2.67012e-06
7.81078e-06
-9.73442e-06
-4.55358e-06
6.19982e-06
7.19308e-06
-8.83931e-06
-7.53758e-06
8.57716e-06
4.66375e-06
-5.70333e-06
-9.36987e-06
9.97934e-06
2.57052e-06
-3.17999e-06
-1.04656e-05
1.08778e-05
1.46467e-06
-1.87694e-06
-1.12528e-05
1.16151e-05
1.12267e-06
-1.48492e-06
-1.19785e-05
1.23484e-05
1.15499e-06
-1.52491e-06
-1.27237e-05
1.30986e-05
1.24647e-06
-1.62143e-06
-1.3465e-05
1.38133e-05
1.22082e-06
-1.56912e-06
-1.41339e-05
1.44175e-05
1.01956e-06
-1.30314e-06
-1.46556e-05
1.48407e-05
6.45496e-07
-8.30516e-07
-1.49657e-05
1.50244e-05
1.10504e-07
-1.69246e-07
-1.50103e-05
1.49182e-05
-6.07772e-07
6.99855e-07
-1.47439e-05
1.44857e-05
-1.6222e-06
1.88039e-06
-1.41473e-05
1.37471e-05
-3.19951e-06
3.59974e-06
-1.33428e-05
1.30901e-05
-5.91485e-06
6.16755e-06
-1.32091e-05
1.36217e-05
-1.05073e-05
1.00947e-05
-1.34853e-05
1.1356e-05
-1.12528e-05
1.3382e-05
-5.97577e-06
6.22258e-08
-4.41538e-06
1.03289e-05
2.86864e-06
-2.14762e-06
-1.84261e-05
1.80563e-05
2.27314e-06
-2.74042e-06
1.70252e-05
-1.65622e-05
-9.61399e-06
1.08726e-05
-1.25859e-06
1.56161e-06
-6.65344e-07
4.63716e-06
-5.53343e-06
-9.35881e-07
2.75787e-06
1.16147e-05
-1.34367e-05
-4.47202e-06
5.92928e-06
1.03946e-05
-1.18518e-05
-7.09781e-06
8.01242e-06
6.67802e-06
-7.59263e-06
-8.73574e-06
9.33151e-06
3.77843e-06
-4.3742e-06
-9.85173e-06
1.03334e-05
2.31984e-06
-2.80155e-06
-1.08e-05
1.12635e-05
1.89488e-06
-2.35841e-06
-1.17279e-05
1.21911e-05
1.93998e-06
-2.40321e-06
-1.26476e-05
1.30898e-05
2.02958e-06
-2.47183e-06
-1.35096e-05
1.38989e-05
1.9379e-06
-2.32716e-06
-1.42502e-05
1.4557e-05
1.59835e-06
-1.9051e-06
-1.48134e-05
1.50145e-05
1.02342e-06
-1.22449e-06
-1.51557e-05
1.52332e-05
2.37004e-07
-3.14508e-07
-1.52434e-05
1.51841e-05
-7.75742e-07
8.35097e-07
-1.50549e-05
1.4859e-05
-2.10556e-06
2.30143e-06
-1.46051e-05
1.43089e-05
-3.94551e-06
4.24175e-06
-1.39923e-05
1.36779e-05
-6.51778e-06
6.83218e-06
-1.34028e-05
1.33109e-05
-9.8477e-06
9.93962e-06
-1.35947e-05
1.3808e-05
-1.38964e-05
1.36831e-05
-1.28192e-05
9.99736e-06
-1.54153e-05
1.82372e-05
-8.59304e-06
7.56082e-06
-1.74638e-05
1.80876e-05
-5.70712e-06
2.97183e-06
1.47241e-05
-1.21774e-05
-1.20812e-05
1.32276e-05
-1.1464e-06
1.4046e-06
-4.59614e-07
6.45467e-06
-7.39966e-06
-1.10057e-06
2.76899e-06
1.5188e-05
-1.68564e-05
-4.2694e-06
5.51745e-06
1.32045e-05
-1.44525e-05
-6.52539e-06
7.34436e-06
8.45517e-06
-9.27415e-06
-8.03574e-06
8.65476e-06
4.97687e-06
-5.59588e-06
-9.24143e-06
9.81885e-06
3.32878e-06
-3.9062e-06
-1.03962e-05
1.09734e-05
2.87867e-06
-3.45582e-06
-1.15447e-05
1.21021e-05
2.91481e-06
-3.47225e-06
-1.26373e-05
1.31424e-05
2.94699e-06
-3.45211e-06
-1.36108e-05
1.40367e-05
2.7357e-06
-3.16163e-06
-1.44156e-05
1.47437e-05
2.22286e-06
-2.55094e-06
-1.50179e-05
1.52357e-05
1.43382e-06
-1.65157e-06
-1.53947e-05
1.54929e-05
4.02191e-07
-5.00434e-07
-1.55287e-05
1.55018e-05
-8.78059e-07
9.04953e-07
-1.54138e-05
1.52695e-05
-2.47035e-06
2.61464e-06
-1.50781e-05
1.48537e-05
-4.49909e-06
4.72356e-06
-1.46152e-05
1.43849e-05
-7.09629e-06
7.32662e-06
-1.41779e-05
1.39742e-05
-1.01602e-05
1.0364e-05
-1.37983e-05
1.37777e-05
-1.34781e-05
1.34987e-05
-1.41589e-05
1.47352e-05
-1.88988e-05
1.83225e-05
-1.53794e-05
1.49189e-05
-1.9277e-05
1.97375e-05
-1.17072e-05
6.82877e-06
9.11708e-06
-4.39009e-06
-1.42945e-05
1.52582e-05
-9.6366e-07
1.19906e-06
-2.99613e-07
8.35184e-06
-9.25129e-06
-1.03983e-06
2.50707e-06
1.84293e-05
-1.98966e-05
-3.89816e-06
5.05426e-06
1.56215e-05
-1.67776e-05
-5.97212e-06
6.73641e-06
1.00586e-05
-1.08229e-05
-7.42798e-06
8.09715e-06
6.23859e-06
-6.90776e-06
-8.76868e-06
9.44957e-06
4.536e-06
-5.21689e-06
-1.01354e-05
1.08155e-05
4.08716e-06
-4.76725e-06
-1.14775e-05
1.21106e-05
4.07078e-06
-4.70385e-06
-1.27061e-05
1.32582e-05
3.98314e-06
-4.53522e-06
-1.37629e-05
1.42173e-05
3.60289e-06
-4.0573e-06
-1.46194e-05
1.49677e-05
2.88912e-06
-3.23734e-06
-1.52609e-05
1.54984e-05
1.87847e-06
-2.11589e-06
-1.56788e-05
1.58011e-05
6.09905e-07
-7.32208e-07
-1.58644e-05
1.5869e-05
-9.16181e-07
9.11612e-07
-1.58175e-05
1.57156e-05
-2.73663e-06
2.83851e-06
-1.55726e-05
1.54009e-05
-4.91963e-06
5.09133e-06
-1.52154e-05
1.50313e-05
-7.5322e-06
7.71634e-06
-1.48638e-05
1.47218e-05
-1.05279e-05
1.06699e-05
-1.45969e-05
1.44589e-05
-1.36418e-05
1.37798e-05
-1.44473e-05
1.50104e-05
-1.74749e-05
1.69117e-05
-1.62642e-05
1.66128e-05
-1.96973e-05
1.93487e-05
-1.42857e-05
8.41758e-06
-1.44833e-06
7.31654e-06
-1.60847e-05
1.6722e-05
-6.37278e-07
9.36765e-07
-4.67151e-07
9.99028e-06
-1.04599e-05
-2.5899e-07
1.50943e-06
2.12556e-05
-2.25061e-05
-3.06907e-06
4.46453e-06
1.80158e-05
-1.94113e-05
-5.51688e-06
6.3308e-06
1.15935e-05
-1.24074e-05
-7.05668e-06
7.78067e-06
7.60289e-06
-8.32688e-06
-8.52921e-06
9.29775e-06
5.94417e-06
-6.7127e-06
-1.00698e-05
1.08268e-05
5.48908e-06
-6.24604e-06
-1.15525e-05
1.22354e-05
5.36462e-06
-6.04759e-06
-1.28691e-05
1.34505e-05
5.10355e-06
-5.68494e-06
-1.39784e-05
1.44517e-05
4.52217e-06
-4.9955e-06
-1.48697e-05
1.5232e-05
3.5942e-06
-3.95651e-06
-1.55393e-05
1.57929e-05
2.36378e-06
-2.61735e-06
-1.59935e-05
1.61412e-05
8.68999e-07
-1.01667e-06
-1.62349e-05
1.62738e-05
-8.89813e-07
8.50918e-07
-1.62589e-05
1.6195e-05
-2.92151e-06
2.9854e-06
-1.60911e-05
1.59591e-05
-5.24218e-06
5.37421e-06
-1.58119e-05
1.56619e-05
-7.88192e-06
8.03193e-06
-1.552e-05
1.53951e-05
-1.0802e-05
1.09269e-05
-1.52976e-05
1.5229e-05
-1.38739e-05
1.39425e-05
-1.51476e-05
1.50944e-05
-1.67276e-05
1.67808e-05
-1.53327e-05
1.53246e-05
-1.90473e-05
1.90554e-05
-1.35608e-05
8.5767e-06
-1.28426e-05
1.78267e-05
-1.70911e-05
1.7113e-05
-2.19035e-08
5.16633e-07
-5.50336e-07
1.06295e-05
-1.05958e-05
2.19337e-07
7.841e-07
2.36271e-05
-2.46305e-05
-2.33305e-06
3.89761e-06
2.09561e-05
-2.25207e-05
-5.12369e-06
6.05997e-06
1.32915e-05
-1.42278e-05
-6.87668e-06
7.68273e-06
9.0898e-06
-9.89586e-06
-8.51064e-06
9.35225e-06
7.52007e-06
-8.36168e-06
-1.01865e-05
1.09927e-05
7.03222e-06
-7.83843e-06
-1.17559e-05
1.24682e-05
6.74855e-06
-7.46084e-06
-1.31277e-05
1.3736e-05
6.27958e-06
-6.88786e-06
-1.42941e-05
1.48007e-05
5.48066e-06
-5.98721e-06
-1.52529e-05
1.56481e-05
4.32665e-06
-4.72183e-06
-1.59843e-05
1.62598e-05
2.87322e-06
-3.14872e-06
-1.6473e-05
1.6623e-05
1.16444e-06
-1.31448e-06
-1.67126e-05
1.67484e-05
-8.04704e-07
7.68934e-07
-1.67382e-05
1.66905e-05
-3.03303e-06
3.08072e-06
-1.66137e-05
1.65158e-05
-5.48743e-06
5.58533e-06
-1.64035e-05
1.62826e-05
-8.16808e-06
8.28901e-06
-1.61606e-05
1.60475e-05
-1.10455e-05
1.11585e-05
-1.59512e-05
1.58795e-05
-1.40085e-05
1.40802e-05
-1.58254e-05
1.56973e-05
-1.69148e-05
1.70429e-05
-1.54189e-05
1.48428e-05
-1.94188e-05
1.99949e-05
-1.32758e-05
9.56529e-06
-2.23026e-05
2.60131e-05
2.56798e-32
-6.0863e-32
2.02647e-32
-1.18463e-31
3.92738e-28
-3.92256e-28
-2.63748e-26
2.34271e-27
-2.59889e-27
-1.45302e-29
4.61601e-31
8.23468e-32
-4.86701e-33
2.7064e-34
2.8418e-34
-1.12114e-36
1.83839e-37
9.53897e-38
-8.61229e-41
1.92805e-41
1.23415e-41
-2.09272e-43
1.05847e-45
2.37503e-45
2.71791e-39
-1.02343e-38
4.42179e-39
6.51974e-34
-1.55639e-33
3.2868e-34
7.72854e-30
-1.89054e-29
3.08468e-30
4.70485e-26
-9.70778e-26
1.42185e-26
1.4346e-22
-2.92734e-22
3.69376e-23
9.63469e-20
-2.47432e-19
2.8291e-20
2.90072e-17
-8.89639e-17
1.42476e-17
4.42718e-15
-2.15074e-14
1.3801e-14
7.83895e-13
-2.33365e-12
1.2974e-12
1.41769e-11
-5.45924e-11
8.3426e-12
1.71907e-10
-1.28211e-11
-2.8256e-10
3.32544e-29
-5.72133e-27
4.80421e-28
-1.11508e-26
3.68173e-23
2.61137e-23
-6.30926e-23
-1.83738e-21
1.73725e-22
7.00981e-23
-4.17169e-22
-6.43937e-25
1.38055e-25
-5.44754e-29
1.17746e-26
-2.05989e-27
3.16492e-29
-7.22129e-31
3.53726e-28
-4.51225e-31
6.00723e-33
-4.0467e-34
1.99063e-31
-5.56758e-35
2.16917e-36
-8.01496e-38
4.11922e-35
-2.12943e-39
2.22369e-40
-2.75069e-42
1.87254e-39
1.82591e-36
-1.06604e-35
-1.69093e-36
1.01678e-35
2.53616e-31
-8.27298e-31
-7.33034e-32
6.24869e-31
2.8268e-27
-8.49989e-27
-4.93372e-28
5.33045e-27
1.67429e-23
-4.24711e-23
-1.6164e-24
2.36644e-23
3.51667e-20
-8.15541e-20
-4.98813e-21
4.32473e-20
2.07839e-17
-5.77499e-17
-3.06052e-18
2.99001e-17
4.07644e-15
-1.843e-14
-1.10228e-15
1.24803e-14
1.28805e-12
-4.51712e-12
-3.56034e-13
3.212e-12
4.34231e-11
-2.1048e-10
-1.97506e-11
1.53171e-10
9.33464e-10
-3.13878e-09
-8.53555e-11
3.99449e-10
9.09829e-09
-9.78028e-10
1.71214e-09
-1.45645e-08
6.86348e-25
-1.15033e-23
-3.08861e-24
-7.14608e-23
1.61516e-19
1.81063e-19
-3.55012e-19
-5.4062e-18
6.35087e-19
5.05922e-20
-3.62769e-18
-1.25827e-20
1.45691e-21
-3.80013e-24
8.02376e-22
-1.09664e-22
1.94268e-24
-1.12552e-25
2.70434e-23
-2.31424e-26
3.15312e-28
-6.7143e-29
1.5194e-26
-3.96126e-30
5.50177e-32
-1.55002e-32
3.79947e-30
-2.79365e-34
6.19071e-36
-9.47796e-37
2.68986e-34
1.07281e-36
-7.72503e-35
-3.20777e-35
9.90854e-35
2.37329e-30
-1.01529e-29
-2.73234e-30
1.05403e-29
4.09795e-26
-1.33184e-25
-2.90899e-26
1.1215e-25
2.33332e-22
-6.18504e-22
-1.49006e-22
4.80417e-22
4.33385e-19
-1.25574e-18
-2.56878e-19
9.82604e-19
2.24503e-16
-8.4985e-16
-1.65501e-16
6.74665e-16
1.46105e-13
-4.96542e-13
-8.74576e-14
3.94275e-13
8.27144e-12
-5.7489e-11
-1.55625e-11
5.45499e-11
5.04073e-10
-3.46025e-09
-8.2392e-10
3.2067e-09
1.39596e-08
-4.82869e-08
-1.03047e-09
9.48163e-10
1.24469e-07
-2.37242e-08
7.56376e-08
-2.80348e-07
2.69782e-20
8.96889e-20
6.26753e-20
1.48466e-17
3.29407e-16
1.09193e-15
-1.44623e-15
-4.4277e-15
1.49565e-16
5.20688e-17
3.88742e-15
-7.85431e-18
1.67059e-18
-6.79405e-20
1.34307e-18
-5.11452e-19
3.0282e-20
-3.62094e-21
2.03313e-19
-2.65824e-22
3.0726e-24
-1.9968e-24
1.5978e-22
-4.37382e-26
7.47843e-28
-5.22877e-28
4.14923e-26
-3.17428e-30
1.94164e-32
-3.88377e-32
3.13642e-30
1.747e-35
-9.00671e-33
-3.86188e-34
8.33121e-34
9.44243e-30
-3.55391e-29
-2.72665e-29
5.16434e-29
1.45087e-25
-4.20271e-25
-2.80319e-25
5.0001e-25
6.64537e-22
-1.80095e-21
-1.09171e-21
1.92303e-21
1.6944e-18
-4.55908e-18
-2.55442e-18
4.96274e-18
2.30855e-15
-6.26728e-15
-2.18731e-15
5.65732e-15
2.71713e-13
-1.43305e-12
-9.49119e-13
1.78684e-12
1.75784e-11
-2.15251e-10
-1.43138e-10
2.9447e-10
2.18409e-09
-1.71112e-08
-9.46118e-09
2.15302e-08
7.1703e-08
-2.28988e-07
1.1234e-09
8.9094e-09
5.47854e-07
-1.89498e-07
8.00651e-07
-1.91604e-06
-3.73546e-18
1.06839e-16
-1.56592e-16
5.77603e-17
2.28065e-13
1.19453e-14
-2.4289e-13
-2.18381e-12
4.75504e-14
-9.97667e-14
2.13749e-12
-3.26645e-15
3.06368e-17
-2.56443e-17
2.75302e-15
-8.49818e-18
3.75924e-18
-2.42249e-18
8.40678e-18
-1.96868e-19
1.50583e-21
-4.27835e-21
4.73315e-20
-1.01917e-23
1.87245e-25
-1.01739e-24
9.61024e-24
-6.90222e-28
4.60366e-30
-7.82062e-29
7.42601e-28
9.71767e-36
-2.40536e-32
-1.25088e-33
1.50535e-33
1.04583e-29
-3.47927e-29
-5.92962e-29
7.15644e-29
1.57574e-25
-4.79489e-25
-5.6384e-25
6.82031e-25
7.03935e-22
-1.75914e-21
-2.20329e-21
2.6038e-21
4.65295e-18
-9.7906e-18
-8.57503e-18
1.14975e-17
2.41037e-15
-5.0888e-15
-7.85709e-15
9.30148e-15
7.41482e-14
-8.8743e-13
-2.51892e-12
2.84362e-12
1.42591e-11
-2.02608e-10
-4.81275e-10
5.98696e-10
2.46618e-09
-1.98748e-08
-3.85718e-08
5.07793e-08
8.5892e-08
-1.59911e-06
1.56688e-07
-3.06301e-06
1.63015e-06
-5.79656e-07
4.04907e-06
-2.52403e-05
-3.03142e-15
5.88806e-14
-5.29993e-14
-4.8769e-13
2.40659e-11
3.30777e-12
-2.73779e-11
-2.83859e-10
9.31079e-11
-3.07997e-11
1.94513e-10
-5.40699e-12
6.27733e-13
-1.3292e-13
4.41167e-12
-2.34536e-14
6.07336e-16
-2.09216e-16
2.29718e-14
-1.26625e-17
6.01036e-20
-3.17752e-20
1.25995e-17
-1.71027e-22
3.44011e-23
-1.03222e-23
1.45792e-22
-2.11919e-28
5.08022e-29
-7.09337e-28
1.17207e-27
-1.64542e-32
-8.06881e-33
-1.40307e-33
2.31134e-33
3.64038e-30
-1.40251e-29
-3.7188e-29
3.20236e-29
5.97547e-26
-2.01476e-25
-3.78715e-25
3.13149e-25
2.53992e-22
-7.02037e-22
-1.47606e-21
1.19892e-21
2.51606e-18
-5.1697e-18
-8.02851e-18
6.64783e-18
2.92741e-16
1.48758e-15
-6.14008e-15
3.95652e-15
-2.08287e-14
9.92127e-13
-2.55607e-12
1.43031e-12
-1.75934e-11
2.59971e-10
-5.79815e-10
3.06173e-10
-3.21358e-09
2.54116e-08
-4.75424e-08
2.27977e-08
2.33165e-07
-2.80838e-07
5.44848e-06
-1.54486e-06
3.17461e-07
-1.25072e-06
5.42577e-05
-1.58615e-05
-1.01631e-12
3.09566e-12
-7.01338e-12
-1.01902e-11
6.46654e-10
1.85502e-10
-1.28917e-09
-7.3495e-09
2.55749e-08
1.94992e-10
-1.25663e-07
-4.12652e-10
-5.05854e-11
-1.45473e-10
8.55279e-10
-3.69695e-11
9.27126e-12
-1.69426e-11
1.80833e-10
-8.35108e-14
1.14368e-15
-1.195e-14
9.35264e-14
-1.42099e-17
1.5777e-19
-1.04372e-18
1.47669e-17
-1.17706e-21
5.09968e-24
-8.53447e-23
1.24217e-21
-3.94337e-27
-8.23299e-33
-1.79324e-28
4.12257e-27
6.78664e-31
-2.29333e-30
-8.32106e-30
6.35237e-30
8.26194e-27
-3.81943e-26
-1.00868e-25
5.80888e-26
3.9274e-23
-1.6088e-22
-4.3332e-22
2.41843e-22
2.75812e-19
-6.6133e-19
-1.39248e-18
1.00477e-18
5.80798e-17
1.16556e-16
-1.5057e-15
7.39334e-16
-1.27398e-14
3.67491e-13
-6.13479e-13
2.3284e-13
-5.97526e-12
8.18244e-11
-1.42794e-10
6.37799e-11
-1.12073e-09
-1.32853e-08
-1.94228e-08
2.37483e-08
3.85801e-09
-2.30855e-09
4.99335e-08
-3.67614e-09
5.51498e-08
-1.14751e-06
3.05808e-06
-2.44404e-06
2.05601e-15
-1.02275e-13
1.60312e-15
-3.87611e-09
-3.10829e-09
4.78371e-09
6.563e-09
1.51641e-08
-2.07777e-10
2.07274e-07
-2.28422e-08
-4.89022e-10
8.30181e-10
-2.15076e-09
2.67534e-09
-2.04446e-11
7.07098e-12
-3.62768e-10
2.4069e-10
2.15807e-13
-3.6927e-15
-3.41922e-13
1.25192e-13
1.5687e-17
3.48235e-19
-6.03885e-17
3.00384e-17
-1.69454e-21
4.26573e-24
-4.99978e-21
3.96664e-21
-2.37907e-27
-6.26446e-30
-2.23533e-26
2.33146e-26
1.08396e-30
-1.87065e-30
-7.93412e-30
1.79212e-29
4.53403e-28
-4.1719e-27
-1.39042e-26
6.55425e-27
2.61989e-24
-2.10053e-23
-6.43576e-23
3.24025e-23
8.88482e-21
-5.49716e-20
-1.41899e-19
9.86588e-20
7.42422e-18
-6.28397e-17
-2.50372e-16
1.69418e-16
-6.20782e-16
4.17076e-14
-6.51482e-14
2.65962e-14
-7.28162e-13
1.14574e-11
-2.42837e-11
9.89705e-12
-1.27196e-11
7.66756e-10
-1.83002e-08
1.40141e-08
-1.74109e-09
4.63119e-11
4.12459e-09
-3.6111e-09
1.3812e-08
-6.32984e-07
2.40724e-06
-1.33195e-06
-1.49895e-05
9.38837e-06
5.60115e-06
-3.13565e-06
4.34302e-06
1.05525e-05
-1.17598e-05
-6.46941e-06
8.17588e-06
2.55482e-05
-2.7254e-05
-9.15235e-06
1.02645e-05
2.38634e-05
-2.49753e-05
-1.16267e-05
1.30848e-05
1.51364e-05
-1.65945e-05
-1.46566e-05
1.63635e-05
1.0723e-05
-1.24298e-05
-1.81644e-05
1.99895e-05
9.22116e-06
-1.10463e-05
-2.1775e-05
2.34764e-05
8.64877e-06
-1.03501e-05
-2.50692e-05
2.65482e-05
8.17117e-06
-9.65011e-06
-2.79262e-05
2.92243e-05
7.50152e-06
-8.79961e-06
-3.04504e-05
3.15949e-05
6.51727e-06
-7.66181e-06
-3.2647e-05
3.36063e-05
5.15879e-06
-6.1181e-06
-3.44832e-05
3.52884e-05
3.47826e-06
-4.28352e-06
-3.60197e-05
3.66509e-05
1.50761e-06
-2.13881e-06
-3.71389e-05
3.74332e-05
-7.33553e-07
4.39255e-07
-3.75051e-05
3.73898e-05
-3.1522e-06
3.2675e-06
-3.7152e-05
3.68691e-05
-5.68841e-06
5.97133e-06
-3.65892e-05
3.63222e-05
-8.39787e-06
8.66491e-06
-3.6069e-05
3.58402e-05
-1.12635e-05
1.14923e-05
-3.56521e-05
3.55148e-05
-1.41528e-05
1.429e-05
-3.5437e-05
3.53885e-05
-1.71357e-05
1.71842e-05
-3.52489e-05
3.48559e-05
-2.05894e-05
2.09823e-05
-3.44669e-05
3.54599e-05
-2.93988e-05
2.84058e-05
-1.18294e-06
-8.55274e-06
9.73568e-06
-1.69813e-05
2.59177e-05
1.60429e-05
-2.49762e-05
-3.05451e-05
2.57029e-05
2.804e-05
-1.31698e-05
-2.10784e-05
1.76309e-05
2.27717e-05
-1.55766e-05
-1.58755e-05
1.59897e-05
1.72004e-05
-1.61502e-05
-1.71102e-05
1.87606e-05
1.4041e-05
-1.52906e-05
-2.06483e-05
2.2565e-05
1.28917e-05
-1.47879e-05
-2.45055e-05
2.64281e-05
1.20823e-05
-1.40036e-05
-2.83196e-05
3.01824e-05
1.11834e-05
-1.30451e-05
-3.20164e-05
3.37641e-05
1.01834e-05
-1.19303e-05
-3.52978e-05
3.64846e-05
8.74744e-06
-9.93373e-06
-3.72683e-05
3.76758e-05
6.82118e-06
-7.22847e-06
-3.777e-05
3.76526e-05
4.81841e-06
-4.70095e-06
-3.7458e-05
3.72934e-05
2.72058e-06
-2.55594e-06
-3.72152e-05
3.71268e-05
2.01319e-07
-1.12916e-07
-3.74179e-05
3.78963e-05
-2.97017e-06
2.49183e-06
-3.8509e-05
3.91822e-05
-6.11336e-06
5.44014e-06
-3.96809e-05
3.98112e-05
-9.03334e-06
8.90303e-06
-3.95877e-05
3.91566e-05
-1.18346e-05
1.22657e-05
-3.86954e-05
3.83685e-05
-1.44117e-05
1.47385e-05
-3.83103e-05
3.86162e-05
-1.69679e-05
1.66621e-05
-3.9406e-05
4.08291e-05
-2.00124e-05
1.85893e-05
-4.31766e-05
4.67356e-05
-2.38996e-05
2.03406e-05
1.22689e-05
6.42218e-19
2.91183e-06
-7.24107e-06
2.72415e-06
1.63664e-05
-3.93062e-08
-8.82554e-08
8.26073e-11
8.82143e-08
1.40534e-12
-7.3842e-22
-1.47071e-22
-2.40183e-21
6.14687e-20
1.17544e-21
-2.46478e-16
2.46238e-16
2.38795e-19
1.07613e-13
-2.56159e-11
2.55083e-11
1.533e-18
4.14062e-09
-3.57995e-08
5.09556e-07
1.1492e-18
4.24597e-08
-1.18198e-07
3.66452e-06
-6.00228e-15
2.98155e-07
-6.46259e-07
4.30303e-06
-7.34833e-12
9.3664e-07
-8.55892e-07
5.15186e-06
-2.75122e-09
4.43314e-07
2.45901e-07
5.16317e-06
-8.73591e-09
-1.39925e-06
3.27241e-06
4.75972e-06
-1.64936e-09
-6.2514e-06
1.08492e-05
3.90721e-06
-9.66321e-10
-1.75154e-05
2.5974e-05
2.18035e-06
-4.559e-10
-3.39706e-05
3.8996e-05
-5.13781e-07
-1.11492e-07
-4.00924e-05
3.83657e-05
-3.30201e-06
5.02866e-06
-3.6256e-05
3.5608e-05
-4.94996e-06
5.59793e-06
-3.59168e-05
3.67204e-05
-7.86172e-06
7.05816e-06
-3.78396e-05
3.90104e-05
-1.19211e-05
1.07503e-05
-3.98701e-05
4.03862e-05
-1.49624e-05
1.44464e-05
-4.0722e-05
4.10398e-05
-1.65147e-05
1.61968e-05
-4.15114e-05
4.2311e-05
-1.74049e-05
1.66053e-05
-4.35828e-05
4.53384e-05
-1.76949e-05
1.59393e-05
-1.00054e-18
9.46213e-19
3.87154e-20
1.12e-18
-1.04396e-16
1.03248e-16
2.78245e-20
4.98238e-15
6.09071e-21
-4.98242e-15
2.59059e-20
1.22194e-20
-6.28743e-21
-2.11419e-19
3.71033e-19
1.28723e-20
-4.50581e-20
-8.68342e-19
1.67523e-18
1.13729e-19
-2.0148e-19
-3.04836e-18
4.5552e-18
2.28999e-19
-1.36339e-19
-2.32247e-18
2.66254e-18
2.94211e-20
4.34694e-21
3.70487e-20
-7.08168e-20
5.81006e-16
-1.1427e-13
2.327e-14
9.43603e-14
3.17656e-11
-3.32717e-09
2.35019e-09
-1.48691e-09
5.68822e-09
-3.49052e-09
9.02604e-09
-9.80225e-09
1.11038e-09
-4.39665e-10
1.81971e-09
-2.26793e-09
-1.08365e-10
4.32954e-10
1.12455e-09
-3.77556e-09
-4.6408e-10
6.22092e-10
8.21428e-10
-1.35431e-09
-3.28008e-10
2.96251e-10
2.24486e-09
-2.57785e-09
-3.0482e-10
2.53023e-08
-2.47568e-08
-6.18826e-10
-7.63509e-07
4.52832e-06
-2.34981e-06
-1.3884e-11
-1.34228e-05
2.80303e-05
-1.00772e-05
2.37974e-07
-3.87126e-05
3.97702e-05
-1.21569e-05
1.10993e-05
-3.80416e-05
3.66247e-05
-1.36185e-05
1.50354e-05
-3.61037e-05
3.64253e-05
-1.47001e-05
1.43785e-05
-3.76442e-05
3.93773e-05
-1.51877e-05
1.34546e-05
-4.11508e-05
4.26249e-05
-1.47073e-05
1.32332e-05
-8.61797e-19
6.28037e-19
1.30713e-20
-5.81682e-21
1.11481e-20
-2.86816e-20
2.09028e-20
-2.43715e-20
3.8797e-20
-6.36316e-20
7.89229e-20
-8.7046e-20
1.79126e-19
-4.88135e-19
5.14273e-19
-3.17087e-19
4.57556e-19
-2.20844e-18
2.26464e-18
-5.22838e-19
4.19724e-19
-5.34296e-18
5.23915e-18
-1.35814e-19
-2.90337e-20
-2.11601e-18
8.73332e-19
-8.37581e-20
7.47401e-19
5.4089e-19
-1.21533e-17
-8.32933e-19
9.25143e-16
-1.0111e-15
-8.75229e-19
-1.15761e-13
1.00584e-09
1.72969e-10
-5.05317e-13
-8.35791e-10
-9.0702e-15
5.98349e-09
-1.97399e-12
1.90253e-13
-2.44798e-11
2.55531e-11
-1.31729e-12
1.05124e-10
-6.12446e-11
9.70942e-10
-2.19591e-10
-4.24366e-11
2.20039e-10
3.62961e-09
-8.51851e-12
-5.65924e-10
8.96458e-10
2.24207e-09
-9.43007e-13
-1.64211e-09
2.08771e-09
1.52002e-09
-6.16237e-11
-2.82852e-10
6.52131e-11
4.52094e-11
-7.99557e-13
-2.35528e-10
4.87662e-09
-4.69834e-09
6.49671e-11
-8.54008e-10
1.13821e-07
-1.03378e-07
2.07096e-09
-9.84777e-07
7.26055e-06
-6.51796e-06
2.72169e-08
-1.95186e-05
3.53428e-05
-1.57963e-05
1.33986e-06
-4.33927e-05
4.33571e-05
-1.42343e-05
1.42698e-05
-4.14658e-05
3.97092e-05
-1.2429e-05
1.41856e-05
-3.11709e-19
5.63332e-20
2.19808e-21
-2.49059e-21
5.81082e-21
-1.22608e-20
6.23099e-21
-1.43805e-20
3.00398e-20
-6.95331e-20
5.20827e-20
-5.63267e-20
8.29991e-20
-4.64417e-19
3.79127e-19
-8.10455e-20
-3.43479e-21
-2.04629e-18
1.69977e-18
1.53017e-19
-4.21311e-19
-4.50231e-18
3.50209e-18
5.79824e-19
1.0516e-18
7.75735e-19
-3.56887e-18
-1.36462e-17
3.55828e-17
4.67872e-17
-8.00117e-17
-4.91666e-17
3.68557e-17
1.57127e-17
-5.29506e-17
-2.10637e-17
6.20899e-12
7.03051e-13
-3.30468e-12
-3.50595e-12
1.00868e-13
1.99691e-12
-5.64162e-12
-1.20532e-13
5.69637e-14
8.53261e-14
-7.75128e-14
-7.97431e-11
3.43098e-11
2.18397e-10
-1.41018e-10
-9.87201e-12
5.51998e-13
8.08603e-12
-2.08214e-11
-9.5087e-14
3.72156e-13
1.05153e-12
-1.39255e-12
-4.77749e-13
1.87632e-12
4.29619e-12
-6.83522e-12
-1.29689e-12
7.42217e-13
1.04155e-12
-5.92672e-13
-9.44803e-13
1.8904e-12
2.10507e-13
-1.30262e-12
-2.40958e-12
1.05239e-10
7.19319e-11
-4.99023e-13
-1.64966e-10
8.47594e-10
-6.18533e-10
3.92469e-12
-5.06082e-09
2.79434e-08
-1.97724e-08
-2.09877e-09
-8.26244e-08
7.8099e-07
-7.10944e-07
1.49914e-08
-1.22817e-05
3.49995e-05
-1.42561e-05
7.04491e-07
7.66359e-20
-1.70627e-20
5.56863e-23
-4.95802e-22
1.70961e-21
-2.96117e-21
1.35966e-21
-4.8592e-21
1.0904e-20
-3.48842e-20
2.15434e-20
-1.81688e-20
1.53223e-20
-2.84108e-19
1.99483e-19
1.17234e-20
-7.71434e-20
-1.27799e-18
8.85656e-19
2.20355e-19
-3.98889e-19
-2.48457e-18
1.62035e-18
3.42034e-19
3.33526e-18
5.33989e-18
-5.08508e-18
-2.33875e-17
5.50469e-17
9.242e-17
-9.27614e-17
-6.8864e-17
8.20922e-17
9.91042e-17
-1.00107e-16
-8.92192e-17
4.84317e-17
7.16805e-17
-4.27307e-17
-1.43206e-14
1.68885e-14
2.02513e-13
-2.26318e-13
-8.26263e-14
5.85207e-14
7.0323e-14
-1.12386e-13
-1.09967e-14
3.54413e-11
5.80358e-11
-1.92517e-14
-2.01407e-12
1.85398e-13
2.50367e-12
-3.86671e-13
-9.47034e-13
5.5829e-12
3.15773e-12
-1.99521e-12
-4.71999e-12
3.32682e-12
5.01604e-12
-5.00736e-13
-4.69183e-12
2.3729e-11
5.07093e-12
-6.77364e-12
-3.48264e-11
3.86631e-11
1.38037e-11
-1.70821e-11
-4.60641e-11
3.75791e-12
2.99962e-12
-1.02549e-11
-2.41046e-12
1.7577e-12
6.59449e-14
-5.22711e-13
-2.43973e-10
3.67874e-10
-8.37818e-12
-5.39815e-12
-6.43166e-10
1.43306e-09
-9.03852e-10
2.83492e-10
-4.22734e-09
3.18955e-08
-2.68484e-08
7.21157e-10
3.96096e-21
-8.24166e-22
3.41586e-24
-7.28038e-23
3.25109e-22
-5.87263e-22
2.35195e-22
-1.02827e-21
2.04368e-21
-1.26261e-20
7.21364e-21
-1.19428e-21
-3.61348e-21
-1.31109e-19
7.97168e-20
1.9663e-20
-6.02611e-20
-5.70564e-19
3.42982e-19
1.32872e-19
-1.95002e-19
-9.79824e-19
5.52996e-19
1.12711e-19
1.07343e-18
2.44031e-18
-7.06951e-19
-9.33087e-18
2.3457e-17
6.11069e-17
-2.62706e-17
-2.79709e-17
3.042e-17
5.50866e-17
-4.20538e-17
-3.96576e-17
6.47931e-17
4.89273e-17
-8.59006e-17
-1.8885e-13
2.63022e-13
2.94195e-13
-3.0459e-13
-2.74469e-13
1.71797e-13
3.09545e-13
-3.23248e-13
-3.20958e-15
1.22775e-15
2.87158e-15
-8.96987e-16
-1.19728e-15
5.94906e-13
2.62478e-13
-4.28744e-17
-9.34068e-13
4.57846e-13
1.71204e-12
-1.64618e-12
-5.80833e-14
1.5419e-14
1.19129e-13
-4.67326e-13
-6.90455e-15
3.82554e-15
3.70064e-15
-1.05365e-15
-1.24623e-11
2.15951e-11
1.90768e-11
-1.08106e-15
-5.41298e-12
4.73948e-13
4.93969e-12
-7.10431e-16
-4.41891e-13
3.71739e-11
2.72533e-12
-3.9451e-11
-3.00007e-10
9.10857e-09
4.36045e-11
-5.77777e-09
-5.18687e-08
5.93747e-08
-2.01849e-09
-1.36087e-09
-5.51952e-08
4.70307e-08
-8.17623e-09
1.73794e-08
1.51048e-22
-2.57238e-23
3.51682e-26
-5.08705e-24
3.12014e-23
-9.16238e-23
3.83659e-23
-7.99427e-23
-3.86554e-23
-4.13832e-21
2.25018e-21
6.10011e-22
-3.16145e-21
-4.56287e-20
2.46415e-20
1.06235e-20
-2.64627e-20
-1.92788e-19
1.01402e-19
5.0253e-20
-6.37691e-20
-2.92865e-19
1.45997e-19
3.76661e-20
7.83829e-20
1.32417e-19
2.01319e-21
-7.75134e-19
3.14576e-18
8.31839e-18
-2.16142e-18
-6.86272e-18
3.92956e-17
4.37568e-17
-5.17466e-17
-1.77687e-16
8.65229e-16
1.393e-15
-1.69775e-16
-1.9418e-17
3.02471e-15
5.7479e-14
-1.4604e-17
-6.08004e-17
5.32327e-18
6.50393e-17
-8.76957e-18
-3.47817e-16
4.97463e-17
1.68379e-16
-7.16401e-17
-3.17714e-17
2.89451e-17
4.96601e-17
-5.91361e-17
-1.39685e-17
4.45062e-13
1.04445e-12
-2.36345e-17
-3.73362e-13
1.31437e-14
3.91485e-13
-1.54438e-17
-1.91263e-16
2.87532e-16
3.80826e-16
-2.81461e-16
-3.4946e-16
1.16514e-15
1.10263e-15
-1.92381e-15
-1.61352e-15
2.05125e-15
1.05334e-15
-1.94794e-15
-2.20095e-15
2.79016e-09
2.08417e-09
-7.21092e-15
-1.0886e-08
7.5156e-09
1.00095e-08
-7.95873e-09
-1.25803e-09
2.90972e-10
8.53977e-10
-1.95944e-11
-3.71619e-09
3.87983e-08
-1.42063e-08
2.09352e-09
5.49809e-24
-2.23062e-24
-2.01391e-25
4.98452e-26
-3.67575e-25
-1.9425e-23
9.65235e-24
6.16455e-24
-6.1442e-23
-1.16121e-21
5.69792e-22
3.40874e-22
-1.28229e-21
-1.25484e-20
6.01422e-21
3.62499e-21
-7.9441e-21
-4.98838e-20
2.29175e-20
1.3391e-20
-1.55485e-20
-6.85083e-20
3.01638e-20
1.09084e-20
-2.27206e-21
-7.48158e-21
5.70058e-21
-3.33258e-20
1.91471e-19
5.03722e-19
-1.08598e-19
-7.60411e-19
1.40344e-17
3.00716e-17
-5.52207e-18
-2.42176e-17
9.12733e-18
4.56696e-17
-6.19706e-18
-4.52979e-18
4.01642e-18
7.22828e-18
-5.89389e-18
-4.42228e-18
7.14064e-18
9.838e-18
-9.67344e-18
-2.06356e-17
3.86587e-17
5.99639e-17
-4.12861e-17
-4.31586e-17
3.75525e-17
6.36663e-17
-5.22177e-17
-1.55765e-17
7.57817e-18
1.57073e-17
-1.41789e-17
-7.31884e-18
1.23184e-17
1.51917e-17
-1.95145e-17
-6.72219e-17
1.46641e-16
1.82554e-16
-1.13505e-16
-5.50699e-16
1.16803e-15
1.80041e-15
-7.46396e-16
-1.30399e-15
1.03753e-15
1.90999e-15
-1.88144e-15
-1.03895e-15
7.13267e-13
5.0004e-14
-7.62266e-13
-5.9386e-10
3.82966e-10
2.93297e-09
-7.44117e-10
-3.23847e-12
1.00317e-12
1.85434e-12
-2.65151e-13
-2.06842e-13
2.035e-11
-2.8829e-11
8.03977e-12
1.23537e-24
-6.48724e-25
-7.5484e-26
4.81925e-26
-2.40044e-25
-4.57993e-24
2.0534e-24
2.85769e-24
-2.17095e-23
-2.64454e-22
1.15428e-22
1.01605e-22
-3.37688e-22
-2.70456e-21
1.1365e-21
8.59984e-22
-1.70159e-21
-9.80959e-21
3.90031e-21
2.58885e-21
-2.8619e-21
-1.23966e-20
4.72857e-21
2.16393e-21
-9.16416e-22
-3.1148e-21
1.42093e-21
-1.06682e-21
7.70971e-21
2.10285e-20
-3.39824e-21
-3.18872e-20
9.26112e-20
2.66145e-19
-4.91275e-20
-2.50694e-19
5.15601e-19
1.36826e-18
-3.6816e-19
-7.29949e-19
8.4523e-19
2.38017e-18
-5.60651e-19
-1.02576e-18
1.58058e-18
3.78665e-18
-9.39466e-19
-3.46122e-18
6.85503e-18
1.52419e-17
-4.53368e-18
-7.76768e-18
7.68921e-18
2.03171e-17
-5.87538e-18
-5.75463e-18
3.82362e-18
9.95956e-18
-3.13241e-18
-3.84145e-18
5.92124e-18
1.2095e-17
-4.29524e-18
-1.5115e-17
2.53073e-17
5.09389e-17
-1.86699e-17
-4.62039e-17
1.08565e-16
2.44223e-16
-6.08394e-17
-2.10105e-16
1.14593e-15
2.09739e-15
-1.93123e-15
-2.72522e-16
7.54617e-13
1.08056e-11
-1.70651e-13
-1.27378e-14
-4.91624e-15
2.36685e-11
-2.38189e-11
4.65501e-13
-3.66058e-11
1.94728e-12
-2.38173e-13
1.65444e-10
-2.24004e-12
-6.39956e-12
6.27949e-10
2.97742e-25
-1.19701e-25
-1.68213e-26
1.17294e-26
-5.71413e-26
-8.61383e-25
3.35193e-25
6.55073e-25
-4.61738e-24
-4.70801e-23
1.78259e-23
1.99549e-23
-6.13346e-23
-4.44162e-22
1.60595e-22
1.44071e-22
-2.60332e-22
-1.43537e-21
4.86969e-22
3.62817e-22
-3.85663e-22
-1.66607e-21
5.40349e-22
3.03365e-22
-1.61616e-22
-5.65812e-22
2.00077e-22
3.75448e-23
1.82249e-22
4.57001e-22
-4.44203e-23
-8.26292e-22
2.80969e-21
8.12369e-21
-1.19727e-21
-8.7472e-21
1.92869e-20
5.96092e-20
-8.87621e-21
-2.67415e-20
3.15616e-20
1.03612e-19
-1.66601e-20
-4.16431e-20
8.70502e-20
2.12104e-19
-4.06925e-20
-2.32686e-19
4.41218e-19
1.13712e-18
-2.33881e-19
-4.88108e-19
4.62489e-19
1.42899e-18
-2.90352e-19
-3.21002e-19
2.70999e-19
7.93077e-19