/*--------------------------------*- C++ -*----------------------------------*\
| =========                 |                                                 |
| \\      /  F ield         | OpenFOAM: The Open Source CFD Toolbox           |
|  \\    /   O peration     | Version:  v1912                                 |
|   \\  /    A nd           | Website:  www.openfoam.com                      |
|    \\/     M anipulation  |                                                 |
\*---------------------------------------------------------------------------*/
FoamFile
{
    version     2.0;
    format      ascii;
    class       volScalarField;
    location    "0.45";
    object      alpha.water;
}
// * * * * * * * * * * * * * * * * * * * * * * * * * * * * * * * * * * * * * //

dimensions      [0 0 0 0 0 0 0];


internalField   nonuniform List<scalar> 
9072
(
1
1
1
1
1
1
1
1
1
1
1
1
1
1
1
1
1
1
0.968907
0.86751
0.950544
0.998079
0.999318
1
1
1
1
1
1
1
1
1
1
1
1
1
1
1
1
1
1
1
0.994305
0.999986
0.996625
0.894991
1
1
1
1
1
1
1
1
1
1
1
1
1
1
1
1
1
1
1
1
1
0.950493
0.840301
1
1
1
1
1
1
1
1
1
1
1
1
1
1
1
1
1
1
1
1
1
0.905799
0.848922
1
1
1
1
1
1
1
1
1
1
1
1
1
1
1
1
1
1
1
1
1
1
0.975083
1
1
1
1
1
1
1
1
1
1
1
1
1
1
1
1
1
1
1
1
1
1
0.999951
1
1
1
1
1
1
1
1
1
1
1
1
1
1
1
1
1
1
1
1
1
1
1
1
1
1
1
1
1
1
1
1
1
1
1
1
1
1
1
1
1
1
1
1
1
1
3.87843e-27
5.06145e-26
1.94138e-22
2.15154e-25
8.733e-29
1.61974e-32
1.28697e-36
1.89999e-39
8.61361e-36
1.59675e-30
2.34571e-26
1.04884e-22
3.23107e-19
3.65269e-16
1.41082e-13
1.03037e-11
8.25451e-10
1.01768e-07
4.52727e-07
6.57386e-22
2.04736e-21
1.4981e-17
2.18072e-20
4.11278e-23
5.16228e-27
2.43134e-31
4.83368e-37
9.9912e-34
6.05885e-29
2.43966e-24
1.09038e-20
2.43078e-17
3.12193e-14
9.55542e-12
1.25265e-09
1.13901e-07
7.38096e-06
2.09183e-05
1.46317e-18
1.88465e-16
7.60885e-14
6.3421e-16
2.52628e-18
1.59272e-22
2.606e-27
8.51277e-32
8.42621e-32
-2.06388e-28
2.73153e-23
1.69758e-19
3.2864e-16
3.93232e-13
1.57119e-10
3.65677e-08
2.34676e-06
0.000150935
0.000518873
1.25852e-15
1.30639e-13
1.95286e-11
3.46622e-13
1.81154e-14
1.39653e-18
3.96892e-23
8.11973e-28
2.83637e-29
4.57621e-27
1.83419e-22
1.05382e-18
1.6169e-15
2.01557e-12
1.29236e-09
2.12116e-07
1.39507e-05
0.000862027
0.0046309
6.9407e-13
5.24543e-11
1.83974e-09
4.46811e-12
7.13628e-13
3.17547e-15
2.40778e-20
3.0864e-25
8.41129e-29
4.37819e-26
7.82176e-22
2.78059e-18
7.37856e-15
5.32412e-12
2.71672e-09
4.55778e-07
3.71507e-05
0.0168915
0.0681776
1.43419e-10
2.084e-08
3.57574e-07
2.07422e-09
7.8159e-13
3.13081e-16
7.88421e-21
1.76681e-24
9.18802e-29
6.64972e-26
9.51458e-22
3.57017e-18
1.78618e-14
3.60014e-12
1.69781e-09
3.72204e-07
3.73441e-05
0.0129173
0.1173
1.31269e-08
9.91858e-06
0.00136909
6.96707e-07
1.66769e-06
3.02666e-11
8.81775e-15
2.52025e-19
7.99755e-27
2.71271e-26
3.84491e-22
1.80995e-18
6.5531e-15
4.00238e-12
5.31573e-10
1.14555e-07
0.000131814
9.09057e-05
0.00153349
2.82814e-10
0.000673382
0.00143011
9.05734e-05
2.86955e-06
6.36179e-11
3.4891e-13
4.15748e-17
4.61937e-23
5.20784e-25
8.47927e-23
4.40366e-19
1.32937e-15
2.52777e-12
5.42433e-11
3.04711e-08
0.000120203
1.86003e-05
0.00483861
1
1
0.999989
0.999998
1
1
1
1
1
1
1
1
1
1
1
1
1
1
1
1
1
1
1
1
0.999948
0.851597
0.975836
0.9956
0.999103
0.999904
0.999942
0.999956
0.999971
0.999984
0.999994
0.999999
1
1
1
1
1
1
1
1
1
1
0.199871
0.119404
5.60098e-08
-1.57202e-16
2.09175e-29
-5.48341e-24
0
0.00786104
0.0342799
0.0657246
0.083302
0.140705
0.269806
0.528258
0.84848
1
1
1
1
1
1
1
1
-3.61762e-14
-2.21644e-22
-1.31373e-17
-1.03809e-14
-5.69065e-14
-2.10111e-13
-1.868e-13
0
4.26867e-11
0.000111619
0.000212471
7.22922e-05
7.95551e-05
3.93364e-05
2.58278e-05
2.59595e-05
0.0549455
0.376969
1
1
1
1
1
-6.27817e-14
-1.04598e-15
-4.18051e-15
-2.93972e-14
-1.38783e-13
-3.61032e-13
-1.67972e-13
3.78397e-13
1.8445e-12
1.19855e-05
9.71771e-05
3.53105e-09
3.01974e-05
4.16269e-05
0.000106437
0.000124756
1.01137e-06
1.03116e-06
3.30402e-06
0.0762514
0.505405
0.999999
1
-5.5889e-14
-4.58643e-16
-3.65636e-15
-2.63236e-14
-1.20733e-13
-2.86995e-13
5.43502e-14
5.12884e-12
2.82022e-12
2.53558e-07
8.48779e-08
3.20109e-09
5.42123e-06
3.06485e-07
2.8793e-08
1.38063e-07
4.97865e-08
5.14701e-08
1.62857e-06
3.69222e-06
4.7237e-05
0.000109165
0.443292
-3.00007e-15
-1.05662e-16
-1.66774e-15
-1.48142e-14
-6.94852e-14
-1.44067e-13
3.36526e-13
6.46256e-12
7.46246e-12
2.80748e-12
7.45758e-10
3.01515e-09
2.40531e-06
7.57001e-09
1.59791e-07
2.76025e-07
4.31593e-07
1.40944e-06
6.20169e-07
2.84831e-08
3.70052e-06
4.6755e-06
2.09663e-05
-7.52064e-17
-1.98192e-17
-5.56447e-16
-6.3172e-15
-2.85906e-14
-5.1635e-14
8.84963e-14
2.58736e-12
2.82654e-12
2.80748e-12
1.72982e-08
1.65539e-08
3.00838e-12
1.00984e-08
4.73956e-08
5.56084e-09
2.17931e-11
8.19234e-07
1.48572e-11
4.87415e-10
1.24562e-05
0.000531423
0.000539557
-2.07606e-18
-2.94618e-18
-1.69759e-16
-2.05174e-15
-8.9732e-15
-1.41697e-14
3.49026e-15
2.67871e-13
2.24998e-12
7.01873e-11
1.46704e-10
3.17589e-13
5.85666e-12
1.77171e-12
1.73146e-08
7.85309e-09
9.60157e-12
3.16234e-11
3.69725e-11
5.73196e-05
0.000191564
7.36073e-07
0.000367119
-2.07901e-19
-6.10023e-19
-4.52683e-17
-5.33783e-16
-2.17997e-15
-3.08264e-15
-3.4478e-16
1.41353e-14
8.82263e-13
1.18698e-12
3.11209e-13
4.25492e-13
2.21662e-12
2.62971e-12
4.72975e-13
5.59931e-13
5.18168e-12
4.5471e-11
4.85357e-11
1.75583e-11
2.47776e-05
1.09885e-08
1.09885e-08
-7.46189e-20
-1.42382e-19
-1.00035e-17
-1.1007e-16
-4.06491e-16
-5.24715e-16
-1.3407e-16
5.27575e-16
6.4248e-15
3.63186e-14
6.41155e-14
9.82219e-14
4.01254e-13
5.24093e-13
2.68235e-13
3.08873e-13
1.21268e-12
4.79174e-12
5.38597e-11
2.17653e-07
3.85718e-09
1.11292e-07
8.40519e-06
-1.77266e-20
-2.64792e-20
-1.74153e-18
-1.73989e-17
-5.67944e-17
-6.69108e-17
-2.29981e-17
1.01863e-17
1.89308e-16
1.3822e-15
2.42231e-15
5.03881e-15
2.70798e-14
3.33716e-14
1.83819e-14
3.29586e-14
1.22885e-13
2.90222e-13
2.1027e-11
5.8213e-09
8.25593e-08
1.02183e-09
6.9682e-05
-2.70789e-21
-3.62275e-21
-2.24927e-19
-2.01798e-18
-5.75246e-18
-6.16206e-18
-2.4476e-18
-2.84302e-20
3.80532e-18
2.67659e-17
5.08531e-17
1.43703e-16
8.55398e-16
1.06226e-15
7.74725e-16
2.47937e-15
1.07538e-14
1.49391e-14
1.44733e-13
5.11983e-14
1.46328e-09
9.77395e-10
5.01154e-10
-2.80152e-22
-3.43618e-22
-2.0347e-20
-1.63407e-19
-4.06036e-19
-3.95279e-19
-1.67799e-19
-1.66637e-20
6.4845e-20
3.74594e-19
6.98175e-19
2.1406e-18
1.22782e-17
1.56765e-17
1.489e-17
6.62238e-17
3.73199e-16
7.52474e-16
1.2165e-15
1.5725e-15
6.24381e-16
2.60882e-11
5.75857e-11
-1.95273e-23
-2.13478e-23
-1.21277e-21
-8.71582e-21
-1.90189e-20
-1.68596e-20
-7.22465e-21
-1.08155e-21
6.41704e-22
3.47894e-21
7.09027e-21
1.66846e-20
7.35184e-20
9.66399e-20
1.17725e-19
6.97647e-19
4.06221e-18
1.04155e-17
1.34746e-17
5.38221e-18
2.86903e-20
-2.24342e-20
4.32078e-15
-8.18415e-25
-8.08231e-25
-4.4104e-23
-2.83897e-22
-5.5144e-22
-4.51191e-22
-1.88488e-22
-3.30393e-23
2.88521e-24
2.33009e-23
5.43453e-23
9.06621e-23
1.94266e-22
2.34249e-22
3.23711e-22
2.64215e-21
1.76976e-20
5.23991e-20
8.19668e-20
5.5609e-20
0
-4.05103e-20
-1.39021e-19
-1.74976e-26
-1.66975e-26
-8.73067e-25
-5.04451e-24
-8.84204e-24
-6.77198e-24
-2.70933e-24
-4.97255e-25
-3.18104e-27
1.12653e-25
2.70382e-25
3.96793e-25
4.92605e-26
-4.02984e-24
-2.5315e-23
-5.59435e-23
-7.04367e-23
-6.7587e-23
-1.04993e-22
-6.73173e-22
-5.29179e-21
-2.73163e-20
-1.00558e-19
-1.41674e-28
-1.54512e-28
-7.7038e-27
-4.00867e-26
-6.3947e-26
-4.58327e-26
-1.7212e-26
-3.07882e-27
-8.25241e-29
2.80852e-28
-1.07042e-27
-3.22558e-26
-2.80892e-25
-1.78748e-24
-7.27662e-24
-1.91374e-23
-3.71049e-23
-5.98654e-23
-1.03103e-22
-3.72e-22
-2.24166e-21
-1.14417e-20
-4.40387e-20
-1.78845e-31
-4.05946e-31
-1.91769e-29
-9.01226e-29
-1.30835e-28
-8.62976e-29
-2.86067e-29
-4.54207e-30
-2.93243e-30
-6.90781e-29
-1.33813e-27
-1.21955e-26
-6.13941e-26
-2.10351e-25
-5.49181e-25
-1.14428e-24
-1.98239e-24
-3.26973e-24
-1.19197e-23
-1.07779e-22
-7.7904e-22
-3.86617e-21
-1.41122e-20
-7.69262e-38
-4.16858e-39
-4.79121e-37
-2.2607e-35
-5.06853e-34
-3.41039e-33
-2.80526e-32
-1.63229e-31
-1.45192e-30
-2.04775e-29
-2.32196e-28
-1.49292e-27
-5.76283e-27
-1.4996e-26
-2.90134e-26
-4.50647e-26
-6.20822e-26
-2.03271e-25
-3.49355e-24
-4.28927e-23
-2.97635e-22
-1.32407e-21
-4.15691e-21
-2.38158e-40
-1.45294e-40
-3.65776e-38
-1.80118e-36
-4.25678e-35
-5.61784e-34
-4.33039e-33
-2.78865e-32
-2.27943e-31
-2.27982e-30
-1.79463e-29
-8.77099e-29
-2.76113e-28
-6.14917e-28
-1.05276e-27
-1.48793e-27
-2.79574e-27
-5.97925e-26
-1.53029e-24
-1.85996e-23
-1.21506e-22
-4.92258e-22
-1.33261e-21
-6.14902e-43
-6.02932e-42
-1.75719e-39
-8.98073e-38
-2.21724e-36
-3.1926e-35
-2.92086e-34
-2.10969e-33
-1.57176e-32
-1.18588e-31
-6.87256e-31
-2.63549e-30
-6.90389e-30
-1.33395e-29
-2.04013e-29
-2.91385e-29
-4.21763e-28
-2.43252e-26
-6.37166e-25
-7.39418e-24
-4.53547e-23
-1.69373e-22
-4.04395e-22
-1.56555e-44
-1.55775e-43
-4.7909e-41
-2.52532e-39
-6.44698e-38
-9.62678e-37
-9.50303e-36
-7.13052e-35
-4.71946e-34
-2.74929e-33
-1.21169e-32
-3.73328e-32
-8.27142e-32
-1.40075e-31
-1.95871e-31
-1.22492e-30
-1.42489e-28
-9.02334e-27
-2.27068e-25
-2.45131e-24
-1.37908e-23
-4.56187e-23
-8.49554e-23
-1.61383e-46
-1.93716e-45
-6.22067e-43
-3.34241e-41
-8.70749e-40
-1.31704e-38
-1.3046e-37
-9.41055e-37
-5.34273e-36
-2.39895e-35
-8.08193e-35
-2.00565e-34
-3.77141e-34
-5.64153e-34
-1.65976e-33
-2.93904e-31
-4.47164e-29
-2.82763e-27
-6.66624e-26
-6.53156e-25
-3.24105e-24
-8.27701e-24
-1.05925e-24
-3.89112e-49
-8.13455e-48
-2.65049e-45
-1.41195e-43
-3.66415e-42
-5.44658e-41
-5.12492e-40
-3.30823e-39
-1.53788e-38
-5.27006e-38
-1.3575e-37
-2.70133e-37
-4.29213e-37
-9.2222e-37
-2.15394e-34
-7.35054e-32
-1.18185e-29
-7.34873e-28
-1.59891e-26
-1.38677e-25
-5.6871e-25
-6.87214e-25
1.3063e-23
-8.84e-54
-3.86676e-51
-1.06771e-48
-4.72622e-47
-1.03718e-45
-1.31858e-44
-1.06141e-43
-5.78567e-43
-2.24472e-42
-6.44954e-42
-1.41913e-41
-2.46946e-41
-8.79023e-41
-5.75793e-38
-4.01942e-35
-1.5386e-32
-2.58875e-30
-1.5947e-28
-3.21589e-27
-2.39733e-26
-7.30185e-26
5.01915e-26
2.04142e-23
-7.07056e-61
-8.59376e-58
-2.46746e-55
-1.1879e-53
-2.94318e-52
-4.31619e-51
-4.06803e-50
-2.61751e-49
-1.20259e-48
-4.09808e-48
-1.18789e-47
-3.02612e-45
-5.67679e-42
-7.47718e-39
-6.18153e-36
-2.64223e-33
-4.69133e-31
-3.08203e-29
-6.12753e-28
-3.79822e-27
-7.60986e-27
1.01951e-25
4.7746e-23
-3.67282e-70
-1.53587e-65
-4.6081e-63
-2.32824e-61
-6.03831e-60
-9.19617e-59
-8.96038e-58
-5.93777e-57
-3.02165e-56
-1.39245e-53
-6.14333e-50
-1.99743e-46
-4.71816e-43
-7.74172e-40
-7.64515e-37
-3.66358e-34
-7.27026e-32
-6.47474e-30
-1.44434e-28
-7.45762e-28
-1.02415e-27
5.31237e-26
8.61997e-23
-1.1793e-81
-2.0658e-75
-7.95356e-73
-5.26713e-71
-1.77897e-69
-3.47542e-68
-7.50821e-67
-4.89292e-63
-5.2212e-59
-4.03241e-55
-2.28077e-51
-9.58057e-48
-2.96322e-44
-6.22646e-41
-7.39319e-38
-4.08665e-35
-1.09809e-32
-1.81641e-30
-4.53366e-29
-2.02842e-28
-2.35855e-28
2.01704e-26
9.2405e-23
-2.65893e-87
-1.25793e-83
-9.197e-81
-1.2657e-78
-9.59114e-77
-8.61821e-74
-2.36672e-69
-4.73888e-65
-6.78511e-61
-7.08373e-57
-5.48305e-53
-3.19468e-49
-1.36407e-45
-3.74591e-42
-5.42451e-39
-3.87431e-36
-1.97624e-33
-5.84942e-31
-1.432e-29
-5.56664e-29
-6.07165e-29
4.61508e-27
3.56049e-23
-4.54054e-94
-1.18866e-89
-1.20395e-86
-2.53838e-84
-4.10431e-81
-1.83533e-76
-7.11721e-72
-2.06633e-67
-4.39047e-63
-6.86605e-59
-8.0556e-55
-7.10901e-51
-4.38872e-47
-1.60069e-43
-3.01716e-40
-3.71223e-37
-4.06765e-34
-1.66321e-31
-3.66848e-30
-1.22761e-29
-1.57876e-29
5.9022e-28
7.58642e-24
-3.98748e-102
-1.76823e-96
-2.92477e-92
-2.10905e-87
-8.93095e-83
-2.32274e-78
-4.2219e-74
-6.95208e-70
-1.45932e-65
-3.42446e-61
-6.80459e-57
-9.92018e-53
-9.16246e-49
-4.64907e-45
-1.42631e-41
-4.02284e-38
-7.43707e-35
-3.66384e-32
-6.9344e-31
-2.08577e-30
-6.80889e-30
3.26822e-29
1.03643e-24
-1.05357e-104
-1.64085e-99
-5.46855e-94
-4.76567e-89
-2.23382e-84
-6.31677e-80
-1.15281e-75
-1.39933e-71
-1.22198e-67
-1.28453e-63
-3.16369e-59
-7.79491e-55
-1.13551e-50
-9.70842e-47
-7.03131e-43
-4.01202e-39
-1.01674e-35
-5.85539e-33
-9.10801e-32
-3.39709e-31
-4.58422e-30
-3.9423e-30
4.34623e-25
-2.48942e-107
-1.23296e-101
-4.58294e-96
-4.65791e-91
-2.51642e-86
-8.16868e-82
-1.71166e-77
-2.37905e-73
-2.2257e-69
-1.42698e-65
-1.10131e-61
-3.00972e-57
-8.26047e-53
-1.84762e-48
-3.21277e-44
-2.83639e-40
-9.43842e-37
-6.4015e-34
-7.90887e-33
-8.90246e-32
-2.69984e-30
-3.51678e-30
6.79516e-25
-3.56947e-111
-2.00774e-104
-9.51591e-99
-1.25675e-93
-8.58808e-89
-3.49979e-84
-9.21518e-80
-1.61858e-75
-1.92723e-71
-1.54294e-67
-8.39724e-64
-6.59495e-60
-4.44637e-55
-2.98326e-50
-9.3264e-46
-1.19315e-41
-5.43447e-38
-4.45106e-35
-4.76414e-34
-3.1223e-32
-1.19334e-30
-3.78192e-31
8.46473e-25
-1.17932e-116
-2.56779e-108
-2.24701e-102
-4.92016e-97
-5.24755e-92
-3.26532e-87
-1.29644e-82
-3.43387e-78
-6.10526e-74
-7.27013e-70
-5.67728e-66
-3.15394e-62
-1.53443e-57
-2.23404e-52
-1.23504e-47
-2.49428e-43
-1.71899e-39
-1.79265e-36
-3.3339e-35
-9.09755e-33
-3.87629e-31
4.38429e-31
4.06991e-25
-5.21077e-124
-2.76674e-113
-6.81201e-107
-3.02834e-101
-5.89781e-96
-6.529e-91
-4.55757e-86
-2.08302e-81
-6.34724e-77
-1.26931e-72
-1.63e-68
-1.30218e-64
-1.5079e-60
-3.91765e-55
-4.77362e-50
-1.9384e-45
-2.48486e-41
-3.82468e-38
-3.7121e-36
-1.86425e-33
-8.99742e-32
-1.87501e-32
1.00058e-25
-2.38768e-134
-2.32854e-119
-2.44207e-112
-2.56327e-106
-1.02285e-100
-2.20573e-95
-2.97502e-90
-2.64407e-85
-1.55717e-80
-5.95336e-76
-1.44158e-71
-2.12832e-67
-1.82777e-63
-3.61612e-59
-2.25531e-53
-3.38975e-48
-1.24784e-43
-4.72248e-40
-3.19687e-37
-2.42866e-34
-1.40955e-32
-6.17627e-32
5.67019e-27
-6.70779e-152
-7.50464e-127
-4.88316e-119
-1.36261e-112
-1.21268e-106
-5.62912e-101
-1.66559e-95
-3.33839e-90
-4.56479e-85
-4.18401e-80
-2.42295e-75
-8.44843e-71
-1.64692e-66
-1.71583e-62
-2.18411e-58
-4.79289e-52
-1.57742e-46
-4.10753e-42
-1.3823e-38
-1.72872e-35
-1.34346e-33
-9.66736e-32
-5.87286e-27
-4.89019e-182
-1.25229e-136
-1.04025e-127
-9.88508e-121
-2.3628e-114
-2.79519e-108
-2.11569e-102
-1.17477e-96
-4.76488e-91
-1.36657e-85
-2.62742e-80
-2.93417e-75
-1.72633e-70
-4.82695e-66
-7.57993e-62
-5.55669e-57
-4.12724e-50
-9.99109e-45
-1.94745e-40
-5.02938e-37
-6.41483e-35
-7.08809e-32
-7.16954e-27
-5.30341e-212
-2.06844e-150
-9.78762e-140
-4.8244e-132
-4.16376e-125
-1.65433e-118
-4.22063e-112
-8.00592e-106
-1.17869e-99
-1.31856e-93
-9.99869e-88
-4.75464e-82
-1.198e-76
-1.4188e-71
-7.10486e-67
-5.03996e-62
-1.30978e-55
-4.99785e-49
-1.85142e-43
-2.64473e-39
-9.87378e-37
-2.09881e-32
-2.85168e-27
0
-4.00155e-174
-3.75205e-160
-2.05164e-151
-1.2472e-143
-3.27148e-136
-5.4774e-129
-6.91536e-122
-6.92684e-115
-5.48187e-108
-3.2554e-101
-1.27244e-94
-2.86074e-88
-3.01349e-82
-1.34981e-76
-1.61113e-71
-1.14177e-63
-1.04909e-56
-1.67761e-50
-6.10058e-45
-4.56003e-40
-1.07543e-33
-1.65182e-28
1
0.988385
0.425325
0.42588
1
1
0.999993
0.999998
1
1
1
1
1
1
1
1
1
1
1
1
0.999982
1
1
1
0.000258115
0.105016
0.435963
0.999996
0.000293216
0.000146941
3.60187e-05
0.000119369
0.000528701
0.000274048
2.92633e-06
9.61538e-07
1.51227e-05
1.40878e-05
2.23559e-07
1.8579e-07
9.65143e-08
1.89581e-07
1.8123e-07
0.000251736
0.000444118
0.000909597
0.000916283
0.000522964
6.92412e-09
2.58106e-08
5.70375e-07
8.97756e-09
3.62943e-12
2.2495e-12
7.89595e-12
2.62496e-12
3.35717e-13
1.63617e-13
8.08129e-14
2.47115e-13
-2.14815e-20
7.64639e-18
3.27475e-17
4.14022e-17
-2.1315e-19
-3.14207e-19
-4.07074e-19
-4.51591e-19
-9.80707e-20
-1.5083e-19
-2.25916e-19
-3.34162e-19
-3.04231e-20
-4.62002e-20
-6.85708e-20
-9.93861e-20
-7.8696e-21
-1.10277e-20
-1.48879e-20
-1.92477e-20
-2.14382e-21
-2.64307e-21
-2.94607e-21
-2.7928e-21
-5.60368e-22
-6.00567e-22
-5.195e-22
-2.65246e-22
-7.20959e-23
-1.62282e-23
2.27514e-23
2.85743e-22
1.47821e-22
6.55035e-22
2.33184e-21
6.86228e-21
8.58318e-22
3.61629e-21
1.43026e-20
4.64761e-20
6.90883e-21
3.25449e-20
1.41857e-19
6.16072e-19
3.8361e-20
1.89361e-19
8.68387e-19
2.20811e-18
9.15826e-20
4.80628e-19
2.33948e-18
2.59483e-16
1.09195e-19
5.77021e-19
5.89166e-18
9.71779e-15
4.61637e-20
2.37239e-19
8.00742e-18
9.65772e-15
8.82235e-21
4.57981e-20
2.74661e-18
1.30003e-15
8.97562e-22
5.43144e-21
5.18816e-19
4.47416e-17
3.30512e-22
2.3379e-21
2.16121e-19
1.01499e-14
8.57321e-22
2.64434e-19
1.37904e-16
1.05684e-14
1.47473e-21
2.5553e-18
2.72931e-15
3.13185e-13
9.95298e-22
4.96289e-18
1.34438e-14
1.38772e-12
1.59436e-22
1.61304e-18
1.69406e-14
1.40803e-12
7.9247e-24
1.38723e-19
2.07782e-15
2.84599e-13
-3.94061e-24
2.34625e-21
7.33313e-17
1.09449e-13
-7.29143e-24
-1.41764e-22
4.92186e-18
1.7134e-14
-4.87993e-24
-4.13763e-22
-1.53995e-19
-4.73568e-17
-4.58549e-25
-9.35658e-23
-8.4561e-20
-5.60887e-17
0.444709
0.460204
0.000237396
3.31532e-05
6.75517e-05
6.49696e-10
9.81496e-14
7.70646e-18
3.44917e-19
1.39008e-21
1.19734e-23
7.08277e-20
2.00753e-16
5.043e-13
6.1761e-11
9.10925e-10
5.87392e-05
1.18315e-05
0.000611032
0.999922
0.999997
0.0287318
1.45772e-05
3.43625e-05
4.4085e-10
8.7616e-14
5.4429e-15
1.14055e-15
1.5834e-16
6.58765e-18
6.45511e-20
9.96844e-18
4.16144e-14
6.94614e-12
1.10759e-11
5.42104e-09
1.53954e-05
5.65315e-07
1
0.964034
0.000364009
6.71575e-08
1.9809e-09
3.64216e-09
2.00356e-13
1.60371e-13
8.30689e-14
2.12963e-14
5.88844e-15
4.40992e-16
7.33702e-18
1.03568e-14
3.01723e-12
1.83847e-12
4.0185e-11
1.63131e-05
3.33613e-07
1
0.361766
2.19194e-06
5.14466e-09
5.7893e-12
9.39892e-13
1.19831e-13
2.86563e-13
1.38176e-13
1.56177e-14
1.37748e-14
1.12741e-14
1.16288e-14
5.71082e-15
1.62506e-12
1.69858e-12
3.01216e-13
2.79368e-06
2.69899e-07
1
0.408946
9.50108e-09
7.73142e-13
3.54804e-14
1.71694e-14
1.71575e-14
1.78963e-14
1.81731e-08
1.17004e-14
1.16074e-14
1.14965e-14
1.20427e-14
8.95832e-14
7.26076e-13
1.04224e-12
1.32999e-13
7.62861e-07
1.7136e-07
1
0.999979
0.368132
0.309951
0.353232
0.0351343
1.12186e-08
4.29869e-08
1.64067e-07
0.000373298
0.00206816
1.42433e-09
3.1205e-10
1.3081e-13
2.9567e-13
3.97783e-13
7.04399e-14
1.22491e-07
1.37694e-07
1
0.999995
0.999883
0.999849
0.999919
0.999836
0.482696
1.63215e-08
1.63217e-08
5.42396e-07
0.03062
0.110388
0.132697
1.52639e-05
5.37672e-10
1.88448e-13
8.21521e-08
1.9075e-07
6.23978e-07
0.0857422
0.857078
0.999911
0.99994
0.999941
0.999941
0.999928
0.920073
0.152273
0.68282
0.997917
0.999821
0.999845
0.869481
1.75205e-08
8.89926e-09
0.00263206
5.16401e-05
3.61088e-05
2.86278e-06
3.44067e-05
0.0380188
0.316649
0.704307
0.992249
0.999928
0.999861
0.999377
0.999789
0.999896
0.999902
0.999902
0.999901
0.946221
0.822396
0.998322
0.595175
0.00138914
2.65973e-07
0.000126634
0.000303249
3.4159e-05
1.467e-05
9.07381e-05
0.0349857
0.29176
0.698779
0.844608
0.793065
0.759949
0.924412
0.9999
0.999726
0.99939
0.999481
0.999484
0.190224
0.000607425
0.000412056
0.000672855
2.71983e-05
1.20905e-07
5.84861e-08
5.23293e-07
5.10631e-06
3.07332e-05
7.4705e-05
4.98032e-05
3.62017e-05
8.29093e-05
0.0177327
0.3524
0.999394
0.999481
0.999484
0.842215
1.11858e-05
5.85697e-09
4.96139e-08
7.68009e-06
2.99546e-09
2.66515e-10
5.85069e-10
4.3041e-09
2.48308e-08
5.27823e-08
2.44614e-08
1.78209e-08
2.45999e-08
3.86023e-07
5.84962e-06
0.000184264
0.573307
0.999379
0.994284
4.58029e-10
3.73676e-10
4.27288e-11
3.82272e-08
1.59248e-09
1.47101e-10
8.1152e-11
2.66355e-11
2.87767e-11
3.35485e-11
7.88407e-12
8.95191e-12
7.25829e-11
2.87601e-10
1.31849e-09
1.45254e-07
5.92976e-05
0.868006
0.994196
1.16526e-10
2.71584e-10
1.69189e-11
4.29701e-11
3.75517e-09
1.6851e-10
6.1512e-11
1.8275e-11
2.86787e-12
6.57881e-13
9.57491e-14
2.44178e-13
2.31916e-13
5.10206e-12
1.1543e-11
9.57923e-11
1.09432e-07
0.337366
0.993883
6.22274e-13
9.20104e-12
6.3245e-12
2.29507e-13
1.28178e-10
1.70265e-10
1.36522e-11
3.42748e-12
4.63354e-13
4.06635e-14
3.22376e-14
4.51259e-14
1.38494e-13
4.22071e-12
8.83993e-12
1.73708e-09
2.11157e-06
0.12981
0.992541
1.00734e-17
4.29569e-16
2.03359e-14
1.11502e-14
2.77258e-14
2.95052e-12
1.14008e-12
4.88491e-14
1.32262e-14
8.57448e-15
2.83997e-14
9.53583e-14
3.00622e-13
3.04968e-12
5.07184e-12
2.40653e-11
5.18537e-09
0.32178
0.991712
-3.81009e-19
-7.28013e-23
9.50951e-19
1.33896e-17
5.82893e-18
2.0585e-15
6.41001e-15
1.14162e-15
1.12656e-15
5.27348e-15
2.86496e-14
1.51624e-13
4.13452e-13
1.37601e-12
-2.04514e-09
3.14139e-06
0.635294
0.991328
0.991711
-5.95176e-19
-9.12951e-19
-6.6277e-19
-2.6285e-18
-3.07606e-17
-6.37939e-17
-1.23132e-16
-5.82888e-17
1.03548e-15
6.31721e-15
3.10245e-14
1.6599e-13
6.90661e-13
-2.92613e-13
4.76665e-08
8.05757e-05
0.784572
0.99119
0.952995
-1.85731e-19
-3.65129e-19
2.96277e-19
-1.49414e-17
-4.7571e-16
-2.57457e-15
-6.54804e-15
-9.42263e-15
-6.63967e-15
5.28721e-15
3.92664e-14
1.7166e-13
9.50587e-13
3.32728e-12
1.48938e-09
2.19036e-06
0.583388
0.99106
0.982734
-2.46717e-20
-3.42074e-20
1.99746e-19
2.68826e-17
-7.52786e-16
-8.15989e-15
-2.93905e-14
-5.48413e-14
-5.75459e-14
-2.2173e-14
7.31722e-14
2.14563e-13
9.19874e-13
6.18368e-12
1.37814e-08
2.28041e-05
0.781543
0.920808
0.825466
-1.00159e-21
4.33693e-20
5.26893e-19
2.18668e-17
1.50542e-16
-5.98343e-15
-4.18553e-14
-1.15002e-13
-1.60399e-13
-9.65659e-14
5.85079e-14
4.78136e-13
7.73192e-13
1.30457e-10
1.51247e-07
5.13185e-05
0.0979105
0.174394
0.29591
-8.217e-20
-6.21814e-20
1.10317e-18
1.34904e-17
2.02811e-16
3.46443e-16
-1.63621e-14
-9.70949e-14
-2.08936e-13
-1.41698e-13
0
5.82208e-13
7.91073e-13
-1.64934e-10
3.06887e-07
0.00309134
0.72939
0.7862
0.768479
-6.05798e-18
-2.66169e-17
-1.37687e-17
5.21278e-18
2.25989e-16
3.28553e-15
4.70574e-14
4.93962e-14
-1.03509e-13
-6.89948e-14
1.32457e-10
5.32528e-11
1.32256e-12
8.66294e-09
1.36079e-05
0.140413
0.213338
0.10985
0.0966155
-1.14381e-16
8.37569e-17
7.89932e-16
-7.68852e-17
3.34302e-34
2.19804e-15
9.0501e-14
8.769e-13
1.6632e-13
1.38762e-07
2.62733e-08
5.61285e-12
5.61285e-12
1.52374e-09
0.000420481
0.000918878
6.21898e-06
0.000277186
0.180146
-6.21174e-16
7.24573e-13
3.58752e-12
5.3473e-13
6.09415e-15
4.11284e-15
3.67961e-14
7.35051e-13
2.54824e-12
6.91174e-08
3.31877e-07
2.65997e-05
0.00042458
4.98623e-08
4.47659e-05
3.12716e-06
5.56051e-06
0.000123388
0.566886
-7.11719e-16
6.79551e-10
3.42306e-10
3.67112e-10
2.89512e-13
1.62327e-13
1.6174e-13
3.5243e-13
3.64384e-11
2.77665e-12
2.31753e-07
1.19557e-08
0.000573486
3.75358e-05
1.24753e-06
2.41097e-06
0.00297724
0.00108548
0.282552
2.35524e-17
2.35117e-07
3.95534e-07
2.53142e-07
4.68582e-10
7.78111e-12
4.57836e-13
7.11479e-13
6.08907e-11
7.45862e-10
1.28358e-09
1.66224e-09
0.000516361
0.000428669
2.04348e-06
0.0022855
0.00297552
0.000861575
0.454475
1.52033e-15
0.000371142
0.00313887
0.00181801
8.03849e-07
1.33329e-08
7.05529e-11
5.83249e-12
3.88567e-11
1.3338e-09
8.10438e-10
8.64475e-10
7.21044e-05
7.98503e-05
0.00141562
0.000325727
0.000239695
0.00267778
0.454472
3.26305e-15
0.0203101
0.00102607
0.000414128
0.000458496
5.06523e-07
1.00511e-08
1.95557e-10
7.13857e-11
4.41937e-10
5.62564e-08
1.07475e-06
1.69591e-07
0.000400646
0.00146426
0.000295024
0.00159525
0.0001244
0.231069
4.45321e-15
0.0203101
0.000389042
0.0146939
0.00525541
0.00038939
6.9918e-08
1.64028e-09
1.03847e-10
2.25757e-10
2.33571e-10
1.18861e-06
3.42996e-08
2.0287e-06
4.2517e-05
0.00164152
0.000820867
0.000113535
0.0031472
1.5535e-14
0.00223023
0.0178138
0.0163936
0.0130974
0.0140849
0.000151128
3.91814e-07
6.44146e-09
2.83211e-10
3.10561e-10
1.7416e-07
5.62369e-09
8.76594e-06
0.00120607
0.00166767
0.000147279
0.000100694
0.000110569
2.95058e-14
2.95305e-13
0.0115007
0.0013564
4.45413e-08
5.65383e-07
0.00957927
0.00367824
6.14228e-07
8.58263e-09
5.63665e-10
3.20618e-09
3.57447e-09
1.15203e-08
0.00121751
0.000249525
9.71842e-05
0.000101886
0.311677
8.81454e-14
1.83499e-10
6.84834e-09
3.35822e-09
4.45406e-08
1.86435e-05
2.85348e-06
0.0062411
8.19433e-06
6.18329e-08
3.02212e-09
3.22727e-09
3.31704e-09
5.51492e-05
8.55809e-05
8.52111e-05
0.00232187
0.000125419
0.126089
1.41585e-13
-1.38294e-09
2.9551e-08
2.37762e-05
0.000302175
0.000419602
0.000204252
0.000804378
0.000810491
1.02532e-07
3.28777e-09
3.19195e-09
3.19195e-09
0.000214311
0.000173534
0.00229321
0.00232187
0.000126194
0.0328603
5.03341e-13
1.43002e-05
1.39657e-06
0.000388925
0.000420842
4.85047e-05
1.38951e-06
1.40999e-06
0.000972698
1.73784e-07
3.70498e-09
3.39536e-09
0.000238221
0.00057017
0.000461203
0.000536175
0.000289893
0.0160473
0.0767982
6.37312e-13
0.000741954
0.00114329
5.18858e-05
0.00020392
7.5553e-05
2.09025e-07
2.10754e-07
7.93763e-06
1.65692e-08
5.74458e-09
3.50536e-05
0.00042989
0.000385324
0.000415317
0.0750771
0.102176
0.102416
0.0569102
4.46445e-13
0.0002497
0.0101903
6.1552e-05
0.000187812
7.07641e-05
1.55148e-07
1.60054e-07
8.06256e-07
6.93208e-08
3.48408e-05
0.000713128
0.000408144
0.0167087
0.0654791
0.000814561
2.26444e-07
1.02332e-05
0.000247937
4.69843e-14
0.000231665
0.000650702
0.0228764
0.000124564
0.000103343
3.01703e-07
2.23796e-07
0.000439445
0.000897792
0.000959846
0.000517063
0.000567349
0.0701128
7.37836e-06
2.28926e-07
2.27581e-07
2.27801e-07
1.70675e-05
3.42381e-15
5.46738e-05
0.000627588
0.0269304
0.0348763
0.000218933
4.47879e-07
2.07659e-05
0.00109901
0.0010873
0.000557718
0.000375258
0.0566854
0.000491067
1.05614e-05
1.09501e-06
2.28658e-07
2.29221e-07
6.0001e-07
-1.51313e-13
2.74391e-07
0.0147991
0.00076388
0.0348763
0.000670206
4.86517e-07
0.00108917
0.00109901
0.000124405
0.00014338
0.000675317
0.0254601
8.61087e-05
0.000376189
1.29976e-05
1.52216e-05
2.36057e-07
2.46453e-07
-7.9851e-15
7.29171e-12
0.00524033
0.00346364
9.35422e-05
0.00060639
0.000279096
0.000496523
7.53871e-05
7.06248e-05
8.72465e-05
0.0253314
0.000435587
0.000175845
0.0749723
0.000869894
6.25696e-05
2.78038e-06
1.67936e-06
-7.34718e-15
2.66385e-11
4.27648e-08
4.09877e-05
7.81244e-05
3.60008e-06
1.76803e-05
5.37841e-05
6.48284e-05
7.33511e-05
0.000115647
0.0148861
0.000891824
0.101223
0.0859448
4.39594e-20
1.04563e-07
8.78894e-06
0.00193558
1
1
1
1
1
1
1
1
1
1
1
1
1
1
1
1
1
1
0.867581
0.91181
0.939975
0.999315
0.999318
1
1
1
1
1
1
1
1
1
1
1
1
1
1
1
1
1
1
0.999988
0.999464
0.999961
0.922965
0.998246
1
1
1
1
1
1
1
1
1
1
1
1
1
1
1
1
1
1
1
1
1
0.840301
0.983429
1
1
1
1
1
1
1
1
1
1
1
1
1
1
1
1
1
1
1
1
1
0.84061
0.99242
1
1
1
1
1
1
1
1
1
1
1
1
1
1
1
1
1
1
1
1
1
0.953657
0.998659
1
1
1
1
1
1
1
1
1
1
1
1
1
1
1
1
1
1
1
1
1
0.999999
0.999993
1
1
1
1
1
1
1
1
1
1
1
1
1
1
1
1
1
1
1
1
1
1
1
1
1
1
1
1
1
1
1
1
1
1
1
1
1
1
1
1
1
1
1
1
1
1
3.75126e-27
7.21369e-23
6.80819e-24
3.57122e-28
9.8308e-32
1.12692e-35
1.89998e-39
1.89999e-39
2.35356e-33
1.32585e-28
1.0797e-24
3.72151e-21
6.95606e-18
4.42567e-15
1.16534e-12
1.20128e-10
8.8324e-09
2.77931e-07
4.82027e-07
1.55361e-23
4.65612e-18
7.62545e-21
2.09923e-21
3.61686e-25
9.30291e-30
1.05705e-34
1.76218e-34
1.22914e-30
4.7101e-26
3.26026e-22
1.056e-18
1.51077e-15
7.80178e-13
1.45963e-10
1.20165e-08
1.2229e-06
1.19807e-05
2.96905e-06
6.22519e-19
3.93003e-14
5.73123e-15
7.17763e-17
2.23762e-20
7.09328e-25
-2.53584e-29
2.79535e-33
9.01375e-30
5.1286e-25
4.7949e-21
1.67015e-17
2.28872e-14
1.13158e-11
3.57591e-09
3.33937e-07
1.91834e-05
0.000330019
0.000137512
2.23483e-16
2.11584e-11
2.35554e-12
1.25968e-13
4.47255e-16
3.91977e-21
1.63994e-25
6.95919e-30
5.95815e-29
2.25755e-24
2.03732e-20
6.25282e-17
9.64546e-14
8.13776e-11
1.95682e-08
1.87776e-06
0.000108224
0.00206317
0.00217416
6.51741e-13
8.50475e-09
2.98115e-10
9.8218e-13
1.20224e-13
1.13011e-17
5.74802e-23
9.81203e-29
1.00369e-28
3.05421e-24
2.81569e-20
8.70865e-17
2.32415e-13
1.58946e-10
3.8307e-08
4.55494e-06
0.000244982
0.067213
0.0244078
1.04916e-10
1.31569e-06
9.78354e-08
3.09744e-11
1.7387e-14
-1.15436e-17
6.01949e-23
1.23353e-28
1.23353e-28
1.58768e-24
1.52269e-20
4.84909e-17
1.60645e-13
8.8855e-11
2.877e-08
3.7906e-06
0.00105515
0.0162313
0.367377
6.28761e-08
8.47178e-05
0.000242095
2.98729e-06
1.01125e-07
2.82361e-13
6.39017e-17
1.19103e-22
7.05019e-27
3.32231e-25
3.36613e-21
1.18011e-17
3.13746e-14
2.09318e-11
8.46375e-09
1.71598e-06
0.000772501
6.84515e-05
0.367428
3.84381e-09
0.00856133
0.000426401
3.11535e-06
7.51176e-08
1.55754e-13
8.60683e-15
5.28339e-20
4.54096e-24
4.59347e-25
4.28444e-22
1.6688e-18
3.60445e-15
7.04598e-12
8.80596e-10
2.05725e-06
0.000279556
5.06787e-06
0.367133
1
0.999999
0.999992
0.999999
1
1
1
1
1
1
1
1
1
1
1
1
1
1
1
1
1
1
1
1
0.979072
0.891694
0.993556
0.997722
0.999659
0.999936
0.999949
0.999964
0.999978
0.999989
0.999997
1
1
1
1
1
1
1
1
1
1
1
0.626783
5.00031e-08
0
-2.76982e-16
2.17986e-55
0
0.000936203
0.0183466
0.052914
0.0727831
0.10501
0.19385
0.378323
0.700541
0.976355
1
1
1
1
1
1
1
1
-3.34827e-24
-3.84577e-20
-3.68611e-15
-2.56003e-14
-1.24362e-13
-2.50436e-13
-6.41995e-14
2.81282e-17
6.531e-09
0.000267053
0.000108277
8.99878e-05
5.20012e-05
2.64901e-05
2.59595e-05
0.0103507
0.152698
0.782064
1
1
1
1
1
-4.56455e-15
-1.77828e-15
-1.13946e-14
-6.80338e-14
-2.48228e-13
-3.73047e-13
6.96092e-14
1.42715e-13
8.55351e-13
0.000210735
3.47249e-09
3.00128e-06
3.61349e-05
6.44851e-05
0.00012493
8.38551e-05
4.86726e-08
9.64599e-08
0.00636688
0.226714
0.933129
1
1
-1.61981e-15
-1.19871e-15
-1.02849e-14
-6.00147e-14
-2.10278e-13
-2.5252e-13
1.82259e-12
5.77468e-12
5.44308e-13
2.33514e-07
3.3208e-09
3.79593e-06
3.78846e-06
2.60125e-08
3.00135e-08
1.17967e-07
4.97851e-08
5.44986e-08
7.8383e-08
9.64468e-06
2.45103e-05
0.100771
0.963543
-1.16091e-16
-4.36996e-16
-5.36137e-15
-3.51384e-14
-1.1537e-13
-9.19218e-14
2.46181e-12
7.50433e-12
6.45222e-12
7.48666e-10
4.58213e-09
6.50253e-10
8.08542e-07
1.57934e-08
3.55618e-07
1.76999e-08
1.40923e-06
1.40923e-06
2.20998e-08
2.48672e-06
3.93343e-06
8.09156e-06
7.88081e-05
-4.40765e-18
-1.12735e-16
-2.11024e-15
-1.47722e-14
-4.55544e-14
-2.39483e-14
8.35771e-13
2.98623e-12
2.82222e-12
7.15341e-09
1.72982e-08
3.3981e-09
2.07032e-12
4.70537e-08
1.83151e-08
1.75623e-10
1.45405e-07
3.85769e-07
1.50079e-11
2.86715e-08
0.000201203
0.000539357
0.000356409
-5.13423e-19
-2.54794e-17
-6.97177e-16
-4.76199e-15
-1.35707e-14
-7.0442e-15
6.14719e-14
5.19479e-13
1.57239e-11
8.22181e-13
3.15382e-13
2.18681e-11
2.75978e-12
8.50523e-13
2.57557e-08
4.15572e-11
1.22651e-11
5.07458e-11
1.50072e-11
0.000201024
3.47829e-05
3.9982e-07
0.000535168
-1.16443e-19
-6.70067e-18
-1.84138e-16
-1.20735e-15
-3.09623e-15
-1.8808e-15
2.28912e-15
4.91455e-14
2.25371e-12
5.34873e-13
3.21899e-13