/*--------------------------------*- C++ -*----------------------------------*\
| =========                 |                                                 |
| \\      /  F ield         | OpenFOAM: The Open Source CFD Toolbox           |
|  \\    /   O peration     | Version:  v1912                                 |
|   \\  /    A nd           | Website:  www.openfoam.com                      |
|    \\/     M anipulation  |                                                 |
\*---------------------------------------------------------------------------*/
FoamFile
{
    version     2.0;
    format      ascii;
    class       volScalarField;
    location    "0.45";
    object      p;
}
// * * * * * * * * * * * * * * * * * * * * * * * * * * * * * * * * * * * * * //

dimensions      [1 -1 -2 0 0 0 0];


internalField   nonuniform List<scalar> 
9072
(
701.434
733.218
740.661
741.664
737.263
733.929
733.913
736.92
742.456
750.341
760.618
773.459
789.119
807.919
830.096
855.842
885.079
914.008
930.737
928.629
936.615
921.371
943.943
640.24
672.924
680.329
681.299
677.161
674.196
674.451
677.591
683.159
691.026
701.268
714.078
729.705
748.375
770.221
795.215
822.734
850.248
870.251
870.156
886.948
831.967
840.861
577.269
610.824
618.093
619.061
615.572
613.428
614.246
617.643
623.263
631.084
641.254
654.002
669.584
688.183
709.817
734.214
760.315
785.291
804.378
815.118
839.252
751.644
740.206
512.737
547
554.121
555.334
552.903
551.876
553.397
557.085
562.744
570.488
580.551
593.21
608.739
627.283
648.754
672.683
697.861
721.809
741.042
754.829
769.344
711.474
704.528
446.971
481.586
488.665
490.641
489.619
489.781
491.971
495.898
501.555
509.194
519.123
531.671
547.147
565.671
587.053
610.695
635.342
658.815
678.468
692.992
702.049
678.332
693.416
380.593
414.75
421.976
425.518
426.076
427.265
429.959
434.026
439.635
447.153
456.927
469.343
484.775
503.333
524.731
548.29
572.772
596.222
616.416
631.948
641.766
641.827
679.002
314.858
346.204
354.099
360.531
362.412
364.292
367.285
371.386
376.919
384.318
393.924
406.181
421.581
440.241
461.778
485.462
510.117
533.932
554.881
571.573
583.468
593.631
633.433
252.349
275.469
284.384
296.142
298.593
300.723
303.843
307.906
313.36
320.669
330.069
342.096
357.471
376.336
398.161
422.174
447.327
471.872
493.826
511.803
525.35
537.017
561.521
245.578
245.613
245.581
245.519
245.469
245.434
245.408
245.388
245.378
245.382
245.411
245.478
245.61
245.849
246.272
247.047
248.606
253.808
261.908
245.516
245.557
245.524
245.458
245.408
245.373
245.347
245.327
245.316
245.319
245.345
245.408
245.532
245.753
246.136
246.807
247.98
252.998
261.995
245.451
245.505
245.47
245.394
245.343
245.31
245.284
245.263
245.25
245.249
245.268
245.319
245.419
245.592
245.861
246.271
246.585
250.801
261.839
245.377
245.453
245.417
245.323
245.275
245.244
245.219
245.196
245.18
245.173
245.182
245.215
245.282
245.384
245.489
245.502
244.277
246.089
260.248
245.285
245.394
245.354
245.241
245.202
245.177
245.151
245.127
245.105
245.091
245.088
245.1
245.126
245.145
245.065
244.596
241.461
234.508
251.743
245.179
245.316
245.215
245.129
245.126
245.107
245.082
245.055
245.028
245.006
244.989
244.977
244.961
244.897
244.64
243.737
239.61
233.336
236.098
245.044
245.21
244.985
244.968
245.047
245.037
245.011
244.981
244.949
244.917
244.886
244.852
244.795
244.657
244.264
243.087
238.714
234.819
236.931
244.87
245.082
244.664
244.828
244.969
244.967
244.94
244.905
244.868
244.827
244.782
244.726
244.635
244.44
243.964
242.689
238.672
234.965
236.444
153.805
185.069
193.806
212.214
215.937
218.18
221.308
225.211
230.556
237.812
246.929
258.568
273.921
293.201
315.545
340.276
366.603
392.588
416.169
435.923
450.767
459.082
445.381
74.5159
74.2087
49.4414
71.26
72.9759
76.7119
80.0971
83.4178
89.0118
97.362
105.597
116.171
131.762
151.703
173.647
201.419
231.279
261.317
289.013
312.66
330.546
338.913
329.224
8.45544
5.68011
2.1206
2.20316
2.23664
2.3078
2.4364
2.23659
3.10316
4.11204
4.81612
6.59042
10.6496
18.8306
33.8239
59.2146
97.0963
130.745
163.718
193.386
218.549
237.24
248.123
1.93229
1.98163
2.03389
2.04663
2.0785
2.11061
2.11745
2.0432
1.98
1.909
2.0354
2.11252
2.17943
2.247
2.2507
2.31104
3.96669
13.9277
46.6262
81.4317
111.811
141.295
168.265
1.79859
1.87168
1.88421
1.89671
1.91345
1.92711
1.92526
1.9001
1.86444
1.81023
1.87338
1.95241
2.00945
2.05398
2.08238
2.13329
2.14081
2.20008
2.26275
4.30371
17.713
48.0954
86.8549
1.64442
1.72303
1.72978
1.73906
1.74991
1.75838
1.76004
1.75426
1.74681
1.74263
1.76226
1.81477
1.85871
1.89928
1.9356
1.97402
2.01086
2.0551
2.08478
2.11833
2.16291
2.36971
15.527
1.48051
1.56517
1.57125
1.57915
1.588
1.59597
1.6016
1.60539
1.6105
1.62133
1.64034
1.67336
1.70898
1.7461
1.7829
1.82081
1.86051
1.90283
1.9446
1.9835
2.00004
1.97419
1.89378
1.31115
1.40158
1.40952
1.4176
1.42638
1.4353
1.44401
1.45309
1.4642
1.47937
1.49988
1.52721
1.55856
1.59219
1.62712
1.66312
1.69989
1.73608
1.76683
1.77503
1.72952
1.63545
1.57
1.14574
1.23603
1.2461
1.25478
1.26417
1.27427
1.28521
1.29744
1.31184
1.32939
1.35081
1.37653
1.4057
1.43715
1.46991
1.50293
1.5345
1.56067
1.57012
1.52342
1.34886
1.1685
1.06922
0.986746
1.07284
1.08215
1.09097
1.10084
1.11194
1.12445
1.1387
1.15517
1.17436
1.19665
1.22216
1.2505
1.28085
1.31216
1.34295
1.37074
1.39026
1.38843
1.32219
1.17069
1.04976
0.954485
0.82492
0.909858
0.917428
0.925827
0.93595
0.947785
0.961426
0.977078
0.995021
1.01553
1.03879
1.0648
1.09326
1.12351
1.1546
1.18506
1.21258
1.23292
1.2372
1.20253
1.12168
1.08881
1.08943
0.659169
0.74491
0.750817
0.758805
0.769051
0.781418
0.795913
0.81265
0.831804
0.853537
0.877916
0.904876
0.934146
0.965225
0.997358
1.02945
1.05992
1.08644
1.1054
1.11122
1.09927
1.12583
1.18064
0.489547
0.576728
0.581716
0.589446
0.599786
0.61258
0.627793
0.645482
0.665749
0.688681
0.714294
0.742503
0.77309
0.805713
0.839906
0.875031
0.910302
0.944861
0.977988
1.00979
1.04359
1.08972
1.15391
0.316078
0.405082
0.409728
0.417385
0.427872
0.441075
0.456953
0.475528
0.496849
0.520961
0.547869
0.577516
0.609774
0.644458
0.681369
0.72027
0.760947
0.803347
0.847805
0.895427
0.948445
1.00888
1.07702
0.138734
0.229763
0.234422
0.242195
0.252936
0.26658
0.283099
0.302506
0.324825
0.350095
0.378342
0.409566
0.443738
0.480815
0.520786
0.563685
0.609629
0.658913
0.71208
0.769951
0.833409
0.902701
0.977521
-0.0424534
0.0506307
0.0554986
0.063525
0.0746069
0.0887219
0.105865
0.126055
0.149328
0.175743
0.205361
0.238245
0.274456
0.314061
0.357175
0.40398
0.454747
0.50987
0.569827
0.635078
0.705866
0.781955
0.862842
-0.227356
-0.132248
-0.127091
-0.118757
-0.107305
-0.0927193
-0.0749819
-0.0540517
-0.0298665
-0.0023375
0.0286377
0.0631744
0.101406
0.143482
0.18961
0.240046
0.295112
0.355197
0.420671
0.491779
0.568504
0.650458
0.737034
-0.415835
-0.31874
-0.313282
-0.304649
-0.292843
-0.27782
-0.259535
-0.237924
-0.212895
-0.184326
-0.15208
-0.115998
-0.0758927
-0.0315463
0.0173114
0.0709842
0.129812
0.194153
0.264299
0.34039
0.422319
0.509663
0.601767
-0.607809
-0.508768
-0.503041
-0.494151
-0.482037
-0.466634
-0.447873
-0.425667
-0.399897
-0.370417
-0.337056
-0.299619
-0.257873
-0.211553
-0.160341
-0.103896
-0.0418589
0.0261221
0.100309
0.180805
0.267494
0.359967
0.457565
-0.803267
-0.702317
-0.696384
-0.687301
-0.674946
-0.659242
-0.640103
-0.617418
-0.591049
-0.56083
-0.526564
-0.488021
-0.444932
-0.396998
-0.343866
-0.285155
-0.220477
-0.14945
-0.0717974
0.0126042
0.103684
0.201101
0.304224
-1.00223
-0.899414
-0.893363
-0.884162
-0.871646
-0.855736
-0.836335
-0.813315
-0.786524
-0.755776
-0.720856
-0.681505
-0.637428
-0.588296
-0.533724
-0.473292
-0.406565
-0.333116
-0.252615
-0.164861
-0.0698019
0.0323526
0.14103
-1.20472
-1.10009
-1.09401
-1.08477
-1.07218
-1.05618
-1.03665
-1.01346
-0.986446
-0.955412
-0.920126
-0.880311
-0.835646
-0.785782
-0.7303
-0.668742
-0.60062
-0.525449
-0.442814
-0.352366
-0.253839
-0.147252
-0.0330839
-1.4108
-1.30442
-1.2984
-1.28919
-1.27662
-1.26064
-1.24113
-1.21796
-1.19095
-1.1599
-1.12456
-1.08466
-1.03984
-0.989755
-0.933947
-0.871923
-0.803147
-0.727067
-0.643145
-0.550812
-0.449529
-0.339048
-0.219639
-1.62052
-1.51241
-1.50652
-1.49739
-1.48495
-1.46912
-1.4498
-1.42684
-1.40008
-1.36929
-1.33424
-1.29464
-1.25015
-1.20038
-1.14488
-1.08312
-1.01453
-0.938489
-0.854295
-0.761139
-0.658163
-0.544723
-0.420612
-1.8339
-1.72409
-1.71834
-1.70936
-1.69714
-1.6816
-1.66264
-1.6401
-1.61382
-1.5836
-1.54919
-1.51031
-1.46663
-1.41776
-1.36323
-1.30253
-1.23506
-1.16012
-1.07689
-0.984322
-0.8812
-0.766294
-0.638536
-2.05087
-1.9394
-1.93378
-1.92502
-1.91313
-1.89802
-1.87958
-1.85768
-1.83214
-1.80279
-1.76937
-1.73163
-1.68925
-1.64186
-1.58901
-1.53019
-1.46482
-1.3922
-1.31139
-1.22117
-1.12002
-1.00599
-0.876696
-2.2713
-2.15822
-2.15276
-2.14429
-2.13283
-2.11829
-2.10054
-2.07948
-2.05494
-2.02674
-1.99467
-1.95848
-1.91789
-1.87256
-1.82207
-1.76597
-1.70372
-1.63465
-1.55785
-1.47207
-1.3756
-1.26591
-1.13911
-2.49502
-2.38039
-2.37511
-2.36701
-2.3561
-2.34225
-2.32537
-2.30535
-2.28204
-2.25528
-2.22489
-2.19064
-2.1523
-2.10957
-2.06211
-2.00952
-1.95136
-1.88707
-1.81588
-1.7367
-1.64797
-1.54712
-1.42951
-2.72178
-2.6057
-2.60067
-2.59303
-2.58276
-2.56974
-2.55389
-2.53509
-2.51323
-2.48818
-2.45976
-2.42782
-2.39215
-2.35252
-2.30868
-2.26031
-2.2071
-2.14866
-2.08449
-2.01384
-1.93567
-1.84819
-1.74811
-2.95124
-2.83393
-2.82922
-2.82214
-2.81261
-2.80055
-2.78586
-2.76846
-2.74826
-2.72514
-2.69898
-2.66965
-2.63701
-2.60091
-2.56118
-2.51763
-2.47006
-2.41832
-2.36222
-2.30149
-2.23575
-2.16455
-2.08722
-3.18304
-3.06479
-3.06051
-3.05408
-3.04541
-3.03441
-3.02103
-3.00519
-2.98682
-2.96584
-2.94216
-2.91571
-2.88641
-2.85418
-2.81897
-2.78067
-2.73927
-2.69481
-2.64744
-2.59734
-2.54479
-2.49047
-2.43559
-3.41693
-3.29802
-3.2943
-3.28863
-3.2809
-3.27108
-3.25911
-3.24496
-3.22858
-3.2099
-3.18891
-3.16556
-3.13983
-3.11174
-3.08131
-3.0486
-3.01369
-2.97685
-2.93853
-2.89932
-2.86004
-2.82211
-2.78783
-3.65277
-3.53343
-3.53035
-3.52551
-3.51882
-3.51026
-3.49981
-3.48745
-3.47317
-3.45695
-3.43878
-3.41869
-3.39671
-3.37292
-3.34745
-3.32049
-3.29227
-3.2632
-3.234
-3.20566
-3.17949
-3.15759
-3.14334
-3.89051
-3.77082
-3.76844
-3.76449
-3.75889
-3.75165
-3.74279
-3.7323
-3.72021
-3.70653
-3.6913
-3.67457
-3.65643
-3.63703
-3.6166
-3.59544
-3.57392
-3.55261
-3.53241
-3.51468
-3.50127
-3.49506
-3.50103
-4.13012
-4.01007
-4.00838
-4.00532
-4.00083
-3.99494
-3.98771
-3.97916
-3.96932
-3.95825
-3.946
-3.93268
-3.91843
-3.90344
-3.88803
-3.87258
-3.85763
-3.84386
-3.83232
-3.82465
-3.82323
-3.83179
-3.85674
-4.37144
-4.25098
-4.24993
-4.24773
-4.24434
-4.23983
-4.23426
-4.22767
-4.22012
-4.21168
-4.20244
-4.19254
-4.18216
-4.17153
-4.16103
-4.15113
-4.14245
-4.13581
-4.13235
-4.13386
-4.14307
-4.16423
-4.20437
-4.61419
-4.49333
-4.49284
-4.49146
-4.48917
-4.48604
-4.48213
-4.47752
-4.47226
-4.46645
-4.46021
-4.4537
-4.44713
-4.44077
-4.43503
-4.43041
-4.4276
-4.42749
-4.43127
-4.44077
-4.45876
-4.48947
-4.53929
-4.85789
-4.73677
-4.73679
-4.7362
-4.73498
-4.73322
-4.73098
-4.72833
-4.72535
-4.72215
-4.71888
-4.7157
-4.71284
-4.71061
-4.70941
-4.70977
-4.71236
-4.71807
-4.7281
-4.74416
-4.76883
-4.80573
-4.86007
-5.10211
-4.98087
-4.98141
-4.9816
-4.98144
-4.98103
-4.98043
-4.97973
-4.979
-4.97839
-4.97803
-4.9781
-4.97885
-4.98059
-4.98372
-4.98875
-4.9963
-5.00718
-5.02247
-5.04372
-5.07301
-5.11308
-5.16762
-5.34648
-5.22541
-5.22652
-5.22747
-5.22836
-5.22928
-5.2303
-5.2315
-5.23299
-5.2349
-5.23738
-5.24061
-5.24484
-5.25038
-5.25761
-5.26698
-5.27905
-5.2945
-5.31421
-5.33942
-5.37154
-5.41228
-5.46362
-5.58919
-5.47005
-5.47177
-5.47349
-5.47543
-5.47767
-5.48029
-5.48337
-5.48704
-5.49143
-5.4967
-5.50303
-5.51067
-5.51989
-5.53106
-5.54459
-5.56093
-5.58062
-5.60433
-5.63283
-5.6669
-5.70713
-5.75393
-5.83472
-5.71258
-5.71493
-5.7174
-5.72032
-5.7238
-5.72791
-5.73277
-5.73849
-5.74521
-5.75309
-5.76232
-5.77312
-5.78576
-5.80055
-5.81786
-5.83808
-5.86161
-5.88887
-5.9202
-5.95573
-5.99514
-6.0374
226.567
242.587
227.812
220.662
292.228
252.284
232.372
212.622
250.671
252.342
256.705
262.344
191.039
205.007
220.385
236.884
121.849
142.514
165.111
189.648
45.5444
69.761
93.7922
120.581
2.17947
4.27326
14.7666
34.5378
1.72998
1.81101
1.8642
2.00313
1.23098
1.45144
1.60855
1.68639
1.11013
1.31661
1.52555
1.66366
1.24592
1.39851
1.55017
1.65178
1.2802
1.35637
1.43818
1.49397
1.22374
1.26601
1.31388
1.36543
1.1436
1.18321
1.2254
1.26977
1.04745
1.08769
1.12934
1.17203
0.93687
0.978598
1.02132
1.06486
0.815552
0.859458
0.904163
0.949565
0.685045
0.731467
0.778623
0.82643
0.545827
0.594988
0.644902
0.695466
0.397694
0.449788
0.502682
0.556228
0.239924
0.295117
0.351165
0.407858
0.0713781
0.129789
0.189139
0.249128
-0.109514
-0.0477266
0.0151435
0.0785991
-0.304749
-0.239335
-0.172582
-0.105335
-0.517021
-0.44762
-0.376338
-0.304477
-0.750192
-0.676249
-0.599018
-0.520446
-1.01029
-0.931868
-0.847179
-0.757125
-1.30644
-1.22798
-1.13859
-1.03511
-1.64539
-1.58045
-1.50713
-1.42101
-2.01498
-1.97429
-1.93553
-1.90193
-2.39036
-2.36848
-2.35083
-2.34143
-2.76473
-2.75666
-2.75284
-2.7565
-3.14259
-3.1493
-3.16264
-3.18674
-3.52402
-3.5475
-3.58167
-3.63268
-3.90216
-3.94151
-3.99632
-4.07453
-4.26559
-4.31466
-4.3809
-4.47221
-4.60729
-4.65752
-4.72058
-4.79968
-4.92794
-4.97502
-5.03093
-5.0962
-5.23127
-5.27354
-5.32264
-5.37935
-5.519
-5.55354
-5.59178
-5.63396
-5.8
-5.82676
-5.85458
-5.8829
-6.07467
-6.09435
-6.11307
-6.13028
230.782
230.74
244.545
244.757
244.873
244.877
244.847
244.808
244.763
244.711
244.65
244.571
244.446
244.205
243.697
242.512
239.547
236.959
237.812
201.549
236.693
244.565
244.78
244.73
244.724
244.693
244.649
244.592
244.521
244.437
244.335
244.189
243.947
243.517
242.735
241.417
240.216
240.133
268.68
267.626
244.411
244.586
244.582
244.58
244.55
244.498
244.428
244.338
244.237
244.133
244.005
243.81
243.521
243.11
242.613
242.308
242.181
256.722
248.422
244.031
244.328
244.424
244.457
244.421
244.362
244.276
244.163
244.041
243.947
243.867
243.731
243.572
243.39
243.267
243.34
243.355
223.438
246.241
244.146
244.159
244.284
244.441
244.308
244.24
244.143
243.991
243.835
243.722
243.758
243.681
243.607
243.543
243.558
243.747
243.859
159.045
231.286
232.302
233.928
233.642
243.558
244.115
244.111
244.035
243.763
243.433
243.439
243.581
243.678
243.619
243.588
243.6
243.771
243.976
68.824
127.584
154.89
136.412
142.795
191.708
242.532
244.006
243.983
243.39
240.527
228.43
240.266
243.656
243.659
243.554
243.436
243.516
243.995
3.59471
28.5839
61.4939
77.0887
90.8059
124.894
175.207
223.426
240.948
181.168
104.315
117.828
173.422
227.531
243.815
243.368
242.519
242.63
243.347
1.75885
1.7913
2.79353
11.926
23.3996
39.8395
71.3122
115.092
153.24
114.465
80.7972
82.6349
119.494
182.316
224.812
182.698
126.205
224.071
245.757
1.73549
1.77062
1.8725
1.98994
2.08141
2.24584
3.25735
11.6641
26.6742
33.354
27.2828
26.3373
35.3905
61.588
99.4633
121.141
178.492
303.698
342.489
1.70786
1.72637
1.79396
1.89462
2.01528
2.13336
2.25033
2.383
2.5362
2.77353
2.80506
2.80297
2.89737
3.49687
14.2261
46.368
149.184
395.664
660.905
1.54643
1.62514
1.69845
1.80072
1.92957
2.05134
2.17064
2.30007
2.44199
2.58119
2.66987
2.72835
2.82393
2.953
3.07854
3.45383
27.5306
290.134
686.133
1.42942
1.52581
1.62075
1.72649
1.84277
1.96095
2.08126
2.20623
2.33481
2.45755
2.55473
2.62788
2.73518
2.87944
3.00613
3.14121
3.54259
65.2793
485.312
1.32941
1.43018
1.53169
1.63926
1.75242
1.86863
1.98738
2.10838
2.22959
2.34573
2.44743
2.52868
2.63063
2.77252
2.89233
2.98119
3.23729
3.17408
246.089
1.22996
1.33238
1.43715
1.54605
1.65881
1.77428
1.89158
2.00965
2.12674
2.24006
2.34493
2.43418
2.52388
2.65126
2.76507
2.84031
2.86364
2.54622
108.235
1.12395
1.22946
1.33753
1.44855
1.56229
1.67795
1.79439
1.9104
2.02472
2.13556
2.24035
2.33407
2.42001
2.52352
2.6292
2.73666
2.617
-14.1978
41.3176
1.0111
1.12088
1.23289
1.34692
1.46274
1.57944
1.69566
1.81027
1.92229
2.03016
2.13194
2.22528
2.30765
2.38916
2.4652
2.55802
-8.52779
-36.139
19.1808
0.89115
1.00625
1.12302
1.24095
1.3597
1.4782
1.59482
1.7085
1.8183
1.92258
2.01971
2.10875
2.18741
2.2549
2.30694
2.24022
4.61584
5.91883
57.2578
0.763824
0.884995
1.00727
1.12984
1.25226
1.37325
1.49091
1.604
1.71144
1.81146
1.90283
1.98602
2.06248
2.13171
2.18375
2.20085
0.536582
10.4344
92.1993
0.628531
0.756298
0.884504
1.01217
1.1388
1.26295
1.38234
1.49526
1.60019
1.69503
1.77878
1.85403
1.92953
2.01708
2.13549
2.20638
-4.72747
0.557289
111.625
0.484336
0.618972
0.752999
0.885569
1.01652
1.14443
1.2665
1.38006
1.48264
1.57107
1.64342
1.70323
1.76722
1.8612
2.0197
2.08945
4.12693
33.0891
50.4238
0.329922
0.471279
0.610139
0.746284
0.88084
1.01292
1.13898
1.25482
1.35615
1.43749
1.4932
1.52284
1.54924
1.60713
1.72765
1.51264
4.37937
41.109
42.0668
0.163788
0.310891
0.451752
0.588094
0.724405
0.861057
0.993101
1.11385
1.21657
1.29272
1.33005
1.31094
1.27036
1.23964
1.19445
2.77864
6.643
4.06227
2.75305
-0.0156004
0.134871
0.27047
0.399482
0.534584
0.677572
0.819516
0.949125
1.05653
1.13059
1.15011
1.06308
0.966687
0.808714
0.232121
-0.247135
-0.201834
0.35809
-1.0498
-0.209463
-0.0603778
0.0512051
0.156432
0.287875
0.444834
0.605933
0.751144
0.866298
0.937367
0.932733
0.755919
0.688936
0.562816
0.130229
-0.218244
-0.578072
-0.41265
-4.9035
-0.416895
-0.275701
-0.242796
-0.196209
-0.0607492
0.136362
0.338678
0.513309
0.643401
0.716189
0.701888
0.518618
0.452259
0.463249
0.20562
-0.143996
-0.500074
0.541406
-2.25582
-0.636496
-0.523134
-0.760142
-0.805491
-0.598911
-0.28221
0.00883011
0.23779
0.398058
0.491019
0.508075
0.43217
0.397674
0.452506
0.2188
0.259451
0.695464
0.681355
10.2406
-0.874733
-0.723943
-2.10077
-1.96654
-1.4703
-0.861356
-0.371363
-0.0599515
0.143845
0.277445
0.353145
0.383307
0.416257
0.446916
0.0773578
-0.245752
0.432552
1.33984
0.55221
-1.28391
-1.67573
-2.39105
-2.67382
-2.09935
-1.38314
-0.745818
-0.35666
-0.113295
0.0719648
0.219017
0.342054
0.431191
0.426922
0.162764
-0.0645291
0.864737
1.82161
-21.0114
-1.87645
-1.85126
-2.3715
-2.60824
-2.08013
-1.34517
-0.850664
-0.633521
-0.39942
-0.149011
0.0841489
0.303914
0.482699
0.561588
0.783271
0.815702
1.49713
1.96162
1.30701
-2.35082
-2.47061
-2.53204
-3.90246
-2.76286
-1.65816
-0.798492
-0.947397
-0.823904
-0.440411
-0.0887519
0.241964
0.530176
0.726586
1.01805
1.29894
1.74014
1.85383
2.10225
-2.7774
-2.95607
-3.57583
-4.86857
-3.38925
-2.97233
-2.37275
-1.63621
-1.62715
-0.890964
-0.345023
0.113121
0.507938
0.845395
1.31824
1.50878
1.77351
1.79659
9.80703
-3.24249
-3.50657
-4.17587
-4.63582
-4.03765
-3.56064
-3.29539
-3.01261
-2.60637
-1.5524
-0.697947
-0.0875053
0.435768
0.871663
1.26574
1.42647
1.68795
1.60972
0.475193
-3.73468
-4.12508
-4.73612
-4.91033
-4.72509
-4.50263
-4.32775
-3.93978
-3.79485
-2.27907
-1.128
-0.346541
0.348201
0.947358
1.3499
1.50578
1.95937
1.68928
1.72511
-4.23162
-4.8078
-5.36332
-5.25626
-5.26864
-5.49481
-5.44645
-4.86038
-4.65399
-2.91353
-1.61695
-0.691901
0.179344
1.01076
1.49111
2.17092
2.73614
1.49071
3.01052
-4.65844
-5.29815
-5.76677
-5.49921
-5.66299
-6.00804
-5.99911
-5.37568
-4.91704
-3.31428
-2.14672
-1.18763
-0.0489643
0.311087
0.394269
1.39975
1.89125
1.58978
36.4924
-4.94034
-5.28801
-5.49313
-5.67003
-5.7813
-6.0182
-5.83864
-5.29705
-4.55927
-3.40484
-2.62503
-1.62005
-1.16543
-3.0718
-3.24772
-6.28487
-6.55756
-6.8153
-4.48617
-5.19721
-5.41277
-5.60001
-5.94828
-5.91895
-5.73902
-5.3592
-4.95979
-4.2676
-3.43941
-2.99305
-2.6633
-3.11094
-6.4079
-6.77018
-6.60689
-6.84041
-7.23404
-7.37367
-5.46796
-5.66145
-5.72094
-5.45501
-6.38819
-5.25697
-5.0911
-5.01597
-4.6143
-4.30292
-4.13502
-4.51154
-7.23897
-10.0614
-8.49284
-7.39421
-7.14993
-7.09082
-6.9992
-5.6975
-5.90823
-6.15926
-6.56792
-6.99194
-5.87146
-5.40894
-5.39662
-5.62601
-5.62456
-5.94669
-7.05791
-14.3351
-14.9256
-15.8722
-11.5525
-7.90199
-6.95805
-6.38201
-5.91923
-5.98283
-5.79017
-6.09087
-6.00256
-5.99824
-5.68311
-6.0275
-6.56637
-6.68699
-8.19573
-10.3398
-18.4897
-20.1173
-33.6632
-14.635
-8.15729
-6.89194
-6.61524
-6.14844
-6.17077
-6.38062
-6.24776
-5.99702
-5.63862
-5.53988
-6.20913
-6.69918
-7.17124
-9.83529
-17.6272
-17.2231
-91.2695
-0.613046
-6.58947
-7.27546
-6.82703
-7.07405
731.027
736.937
742.223
739.668
735.22
733.504
735.076
739.39
746.106
755.172
766.703
780.92
798.104
818.583
842.502
870.096
900.18
924.379
932.026
938.387
929.145
911.4
967.404
670.673
676.695
681.855
679.401
675.306
673.924
675.697
680.086
686.804
695.84
707.337
721.525
738.644
758.89
782.343
808.745
836.768
861.927
873.609
875.499
877.692
806.453
891.13
608.523
614.612
619.555
617.423
614.144
613.479
615.654
620.182
626.892
635.863
647.289
661.424
678.5
698.626
721.709
747.172
773.219
795.855
810.742
824.409
833.12
714.528
806.889
544.652
550.765
555.594
554.163
552.07
552.337
554.992
559.665
566.342
575.214
586.537
600.602
617.633
637.67
660.463
685.236
710.201
732.215
748.44
762.14
761.434
682.724
757.375
479.205
485.292
490.379
490.159
489.44
490.641
493.727
498.497
505.108
513.853
525.047
539.029
556.032
576.031
598.65
623.007
647.395
669.263
686.363
698.551
698.369
669.85
741.664
412.382
418.319
424.359
425.89
426.482
428.435
431.819
436.616
443.133
451.736
462.778
476.666
493.672
513.71
536.302
560.522
584.771
606.845
624.811
637.751
643.636
650.086
721.387
344.535
349.595
358.064
361.694
363.217
365.653
369.185
373.944
380.363
388.823
399.686
413.468
430.517
450.689
473.41
497.767
522.262
544.873
563.812
578.152
588.285
606.682
669.086
276.175
278.314
291.538
297.805
299.518
302.173
305.737
310.423
316.767
325.088
335.703
349.338
366.488
386.928
409.946
434.7
459.809
483.275
503.372
519.115
531.028
546.131
575.759
245.612
245.604
245.55
245.492
245.45
245.42
245.397
245.382
245.378
245.393
245.438
245.534
245.713
246.03
246.602
247.65
250.464
258.285
262.978
245.552
245.549
245.491
245.431
245.389
245.36
245.336
245.321
245.316
245.328
245.37
245.46
245.627
245.919
246.427
247.27
249.631
257.806
263.193
245.49
245.499
245.43
245.365
245.326
245.297
245.273
245.256
245.248
245.255
245.288
245.362
245.495
245.713
246.047
246.448
247.591
256.036
263.832
245.424
245.456
245.366
245.294
245.259
245.231
245.207
245.187
245.175
245.175
245.195
245.244
245.329
245.441
245.519
245.218
243.695
251.248
265.551
245.346
245.415
245.287
245.216
245.189
245.164
245.139
245.116
245.097
245.088
245.092
245.112
245.139
245.13
244.912
243.73
237.952
239.124
272.181
245.256
245.326
245.147
245.128
245.118
245.095
245.068
245.041
245.016
244.996
244.982
244.971
244.94
244.81
244.323
242.407
236.422
240.948
281.518
245.144
245.217
244.931
245.028
245.046
245.025
244.996
244.965
244.933
244.902
244.87
244.828
244.743
244.512
243.834
241.607
235.176
236.01
273.047
245.08
245.215
244.756
244.926
244.976
244.955
244.923
244.887
244.848
244.805
244.757
244.688
244.558
244.256
243.485
241.314
235.846
236.104
265.065
192.224
185.755
204.69
214.989
216.909
219.661
223.132
227.657
233.945
242.128
252.348
265.736
283.11
304.066
327.632
353.335
379.793
404.769
426.607
444.013
455.941
456.915
371.295
98.5323
57.9415
58.1917
72.6339
74.8279
78.3871
81.6827
85.7893
93.035
101.519
110.277
123.362
141.35
162.466
187.424
215.924
246.602
275.503
301.467
322.455
336.29
337.12
316.339
22.6604
2.11516
2.20662
2.21696
2.26443
2.37989
2.32818
2.57592
3.68608
4.43729
5.46702
8.26724
14.0553
26.1983
45.3201
76.6251
114.801
147.203
179.071
206.707
228.747
243.836
250.32
2.0393
2.0094
2.04567
2.06518
2.09424
2.12219
2.08718
2.01036
1.93422
1.95867
2.07924
2.14497
2.21744
2.24546
2.281
2.51092
6.90989
28.6775
63.9346
97.3356
126.635
155.092
181.05
1.87202
1.87549
1.88923
1.90492
1.92123
1.9291
1.91484
1.88377
1.8399
1.81459
1.92041
1.98186
2.03583
2.06509
2.10946
2.13271
2.17471
2.19503
2.42839
9.13376
31.4404
67.7128
106.562
1.72112
1.72564
1.73391
1.74448
1.75473
1.76026
1.75779
1.75028
1.74536
1.74348
1.79041
1.83665
1.88009
1.91718
1.95493
1.99193
2.03184
2.06602
2.10655
2.14754
2.17359
4.18891
30.8671
1.56228
1.56767
1.57491
1.58354
1.59221
1.59911
1.60358
1.60749
1.61516
1.62899
1.65596
1.69094
1.72755
1.76443
1.8017
1.84032
1.88152
1.92325
1.96632
1.99571
1.98922
1.91363
1.90124
1.3959
1.40529
1.41339
1.42193
1.43087
1.43967
1.44842
1.45826
1.47118
1.48882
1.51278
1.54256
1.57516
1.60952
1.645
1.68145
1.71823
1.75266
1.77606
1.75892
1.68601
1.58628
1.61034
1.22749
1.24121
1.25032
1.25939
1.26913
1.27962
1.29111
1.3043
1.32016
1.33958
1.36315
1.39077
1.42119
1.45343
1.48646
1.51906
1.54869
1.56878
1.5586
1.45345
1.24892
1.10568
1.10915
1.06581
1.07781
1.08646
1.09575
1.10623
1.118
1.13133
1.14663
1.1644
1.1851
1.20901
1.23602
1.26548
1.29646
1.32774
1.35745
1.38205
1.39334
1.36939
1.24468
1.1111
0.986027
0.996299
0.907077
0.91377
0.921408
0.930675
0.94165
0.954369
0.968984
0.985744
1.00494
1.02681
1.05146
1.07876
1.10821
1.13903
1.17002
1.19939
1.22404
1.23792
1.22797
1.15659
1.10384
1.07648
1.15216
0.743609
0.747656
0.754515
0.763657
0.774971
0.788394
0.803991
0.821913
0.842342
0.865397
0.891085
0.919249
0.949501
0.98122
1.01349
1.04501
1.07386
1.09716
1.11053
1.10376
1.10664
1.15
1.23249
0.575956
0.578873
0.58524
0.594301
0.60588
0.619882
0.636321
0.655286
0.676879
0.701155
0.728084
0.757518
0.789173
0.82265
0.857398
0.892702
0.927725
0.961628
0.99398
1.02574
1.06445
1.12041
1.19244
0.404372
0.407012
0.413191
0.422283
0.434138
0.448679
0.4659
0.485842
0.508555
0.534068
0.562357
0.59333
0.626825
0.66265
0.700586
0.740396
0.781924
0.825272
0.871108
0.92108
0.977734
1.04185
1.11426
0.228919
0.231687
0.237931
0.2472
0.259398
0.27448
0.292441
0.3133
0.33709
0.363846
0.393583
0.426287
0.461916
0.500439
0.541866
0.586263
0.633826
0.684965
0.740366
0.800942
0.86735
0.939415
1.01704
0.0495903
0.0526561
0.0591272
0.0686852
0.0812856
0.0969145
0.115578
0.137304
0.162139
0.190148
0.22139
0.255931
0.293829
0.335171
0.380102
0.428847
0.481736
0.539213
0.601767
0.669783
0.74328
0.821821
0.905009
-0.133517
-0.130079
-0.123315
-0.113423
-0.100405
-0.0842468
-0.0649191
-0.0423705
-0.0165259
0.0127127
0.0454523
0.0818195
0.121952
0.166025
0.214271
0.266977
0.324504
0.387241
0.455514
0.529457
0.608864
0.693205
0.781875
-0.320248
-0.316416
-0.309361
-0.299146
-0.285737
-0.269088
-0.249149
-0.225844
-0.199061
-0.168671
-0.134529
-0.0964604
-0.0542654
-0.00769904
0.0435247
0.0997307
0.161274
0.228487
0.301601
0.380645
0.46535
0.555163
0.649372
-0.510486
-0.506299
-0.498995
-0.488502
-0.474751
-0.457677
-0.437207
-0.413236
-0.385631
-0.354232
-0.31886
-0.2793
-0.235304
-0.18658
-0.132796
-0.0735997
-0.00863006
0.0624277
0.139769
0.223395
0.313043
0.408172
0.508029
-0.704192
-0.699728
-0.692247
-0.681538
-0.667518
-0.650108
-0.629212
-0.604703
-0.576432
-0.544216
-0.507844
-0.467062
-0.421591
-0.371104
-0.315233
-0.253587
-0.185777
-0.111465
-0.030441
0.0573249
0.151632
0.251997
0.357652
-0.901383
-0.896748
-0.889172
-0.878322
-0.86412
-0.846478
-0.825286
-0.800402
-0.771656
-0.738852
-0.701753
-0.660076
-0.613516
-0.561715
-0.504268
-0.440743
-0.370704
-0.293764
-0.209653
-0.118238
-0.0195858
0.0859252
0.197524
-1.10207
-1.0974
-1.08981
-1.0789
-1.06461
-1.04686
-1.02552
-1.00044
-0.971445
-0.938316
-0.900804
-0.858605
-0.811388
-0.75877
-0.700311
-0.635532
-0.563943
-0.485088
-0.398587
-0.304119
-0.201536
-0.0910675
0.0265433
-1.30631
-1.30177
-1.29421
-1.28333
-1.26907
-1.25133
-1.23001
-1.20495
-1.17594
-1.14278
-1.1052
-1.06288
-1.01548
-0.962595
-0.903745
-0.838414
-0.766053
-0.686122
-0.598067
-0.501314
-0.395438
-0.280418
-0.156858
-1.51417
-1.50984
-1.50237
-1.49159
-1.47747
-1.4599
-1.43878
-1.41395
-1.3852
-1.35231
-1.31503
-1.27303
-1.22595
-1.17338
-1.11482
-1.04972
-0.977484
-0.89746
-0.808893
-0.710925
-0.602779
-0.483986
-0.354706
-1.72574
-1.72161
-1.71425
-1.70366
-1.68979
-1.67256
-1.65182
-1.62744
-1.59922
-1.56693
-1.53033
-1.48909
-1.44287
-1.39123
-1.33369
-1.26968
-1.19857
-1.11961
-1.03185
-0.934156
-0.825296
-0.704062
-0.569697
-1.94098
-1.937
-1.92979
-1.91948
-1.90599
-1.88923
-1.86907
-1.84538
-1.81796
-1.7866
-1.75106
-1.71104
-1.66621
-1.61615
-1.56038
-1.49837
-1.42947
-1.35288
-1.26754
-1.17207
-1.06475
-0.943405
-0.805574
-2.15975
-2.15589
-2.14889
-2.13894
-2.12595
-2.10982
-2.09044
-2.06765
-2.04131
-2.0112
-1.97711
-1.93876
-1.89584
-1.84798
-1.79475
-1.73565
-1.67009
-1.59729
-1.51618
-1.4253
-1.32262
-1.20496
-1.06763
-2.3819
-2.37814
-2.37142
-2.36192
-2.34954
-2.3342
-2.31576
-2.29411
-2.2691
-2.24055
-2.20826
-2.172
-2.13151
-2.08646
-2.03649
-1.98117
-1.92003
-1.8524
-1.77737
-1.69366
-1.59928
-1.49084
-1.3621
-2.60723
-2.60355
-2.59719
-2.58824
-2.5766
-2.56218
-2.54487
-2.52455
-2.50111
-2.4744
-2.44424
-2.41046
-2.37285
-2.33115
-2.28508
-2.23433
-2.17856
-2.11733
-2.05003
-1.97578
-1.89325
-1.80005
-1.69169
-2.83542
-2.8319
-2.82599
-2.81769
-2.8069
-2.79354
-2.77751
-2.75872
-2.73707
-2.71244
-2.68472
-2.65375
-2.6194
-2.58151
-2.5399
-2.49436
-2.44472
-2.39083
-2.33246
-2.26927
-2.20088
-2.1267
-2.04628
-3.06613
-3.06295
-3.05759
-3.05004
-3.04021
-3.02802
-3.01342
-2.99632
-2.97666
-2.95434
-2.92929
-2.90142
-2.87066
-2.83695
-2.80021
-2.76036
-2.71741
-2.67148
-2.62272
-2.57134
-2.51779
-2.46299
-2.40877
-3.29908
-3.29644
-3.29174
-3.28503
-3.27626
-3.26537
-3.25231
-3.23705
-3.21953
-3.1997
-3.17753
-3.15299
-3.12608
-3.09681
-3.06524
-3.03141
-2.99549
-2.95784
-2.91899
-2.87961
-2.84079
-2.80428
-2.77309
-3.5341
-3.53216
-3.5282
-3.52241
-3.51478
-3.50527
-3.49387
-3.48056
-3.4653
-3.44811
-3.42898
-3.40793
-3.38503
-3.36038
-3.33415
-3.30652
-3.2778
-3.24856
-3.21966
-3.19219
-3.16782
-3.14918
-3.14059
-3.77111
-3.7699
-3.76672
-3.7619
-3.75547
-3.74742
-3.73775
-3.72646
-3.71357
-3.69911
-3.68312
-3.66567
-3.64688
-3.62693
-3.60609
-3.5847
-3.56319
-3.54229
-3.52313
-3.50729
-3.49701
-3.49606
-3.51093
-4.01008
-4.00949
-4.00709
-4.00326
-3.99805
-3.99149
-3.9836
-3.9744
-3.96394
-3.95227
-3.93947
-3.92566
-3.91101
-3.89577
-3.88028
-3.86501
-3.85054
-3.83772
-3.82788
-3.82296
-3.82595
-3.84163
-3.87867
-4.25085
-4.25072
-4.24904
-4.24619
-4.24222
-4.23718
-4.23109
-4.22401
-4.216
-4.20715
-4.19756
-4.1874
-4.17686
-4.16624
-4.15597
-4.14659
-4.13881
-4.13359
-4.13234
-4.13728