/*--------------------------------*- C++ -*----------------------------------*\
| =========                 |                                                 |
| \\      /  F ield         | OpenFOAM: The Open Source CFD Toolbox           |
|  \\    /   O peration     | Version:  v1912                                 |
|   \\  /    A nd           | Website:  www.openfoam.com                      |
|    \\/     M anipulation  |                                                 |
\*---------------------------------------------------------------------------*/
FoamFile
{
    version     2.0;
    format      ascii;
    class       volScalarField;
    location    "0.45";
    object      p_rgh;
}
// * * * * * * * * * * * * * * * * * * * * * * * * * * * * * * * * * * * * * //

dimensions      [1 -1 -2 0 0 0 0];


internalField   nonuniform List<scalar> 
9072
(
745.578
747.933
755.375
756.378
751.978
748.644
748.627
751.635
757.171
765.056
775.332
788.174
803.834
822.634
844.811
870.556
899.794
928.723
944.995
941.396
950.602
936.057
958.648
743.242
746.497
753.902
754.872
750.734
747.769
748.024
751.164
756.732
764.599
774.841
787.652
803.279
821.948
843.795
868.788
896.307
923.821
943.824
943.311
960.52
905.292
906.717
739.131
743.256
750.526
751.493
748.004
745.86
746.679
750.075
755.695
763.516
773.686
786.434
802.016
820.615
842.249
866.646
892.747
917.723
936.81
947.55
971.684
877.526
851.51
733.457
738.29
745.412
746.624
744.193
743.166
744.688
748.376
754.034
761.779
771.842
784.501
800.029
818.574
840.044
863.974
889.151
913.099
932.333
946.12
960.635
884.763
866.948
726.55
731.735
738.814
740.79
739.768
739.93
742.12
746.048
751.704
759.344
769.272
781.82
797.297
815.821
837.202
860.845
885.491
908.965
928.618
943.142
952.198
928.482
937.339
719.031
723.758
730.985
734.527
735.084
736.273
738.968
743.034
748.644
756.161
765.936
778.351
793.784
812.342
833.74
857.299
881.78
905.231
925.424
940.957
950.775
950.835
987.996
712.155
714.071
721.966
728.398
730.279
732.159
735.152
739.254
744.786
752.185
761.791
774.048
789.448
808.108
829.645
853.329
877.985
901.799
922.748
939.44
951.335
961.498
1001.3
708.505
702.194
711.11
722.868
725.319
727.448
730.568
734.632
740.086
747.395
756.795
768.822
784.196
803.061
824.886
848.9
874.053
898.597
920.552
938.529
952.075
963.743
988.247
245.622
245.628
245.596
245.534
245.484
245.449
245.422
245.403
245.393
245.397
245.425
245.493
245.625
245.864
246.286
247.062
248.621
253.822
261.923
245.619
245.631
245.598
245.532
245.482
245.447
245.421
245.401
245.39
245.393
245.418
245.481
245.605
245.827
246.21
246.88
248.054
253.073
262.07
245.612
245.637
245.603
245.526
245.476
245.443
245.417
245.396
245.383
245.381
245.4
245.451
245.552
245.724
245.993
246.404
246.718
250.954
262.041
245.598
245.645
245.609
245.514
245.466
245.436
245.41
245.388
245.371
245.364
245.373
245.406
245.473
245.575
245.68
245.694
244.471
246.445
261.325
245.565
245.645
245.604
245.491
245.452
245.427
245.402
245.377
245.356
245.341
245.338
245.35
245.376
245.395
245.315
244.846
241.72
238.979
269.031
245.517
245.625
245.524
245.438
245.435
245.416
245.391
245.364
245.337
245.315
245.298
245.286
245.27
245.206
244.949
244.046
239.93
237.632
272.617
245.441
245.581
245.856
245.336
245.416
245.405
245.379
245.348
245.317
245.285
245.254
245.219
245.163
245.024
244.632
243.455
239.13
235.22
237.863
245.326
245.795
245.7
245.293
245.397
245.394
245.366
245.332
245.294
245.254
245.209
245.153
245.062
244.866
244.391
243.116
239.15
235.4
238.933
718.57
687.238
695.969
714.381
718.105
720.348
723.477
727.379
732.724
739.98
749.098
760.736
776.089
795.369
817.713
842.445
868.771
894.756
918.338
938.092
952.936
961.25
947.549
764.476
701.539
583.795
683.479
697.582
703.513
707.4
710.745
716.348
724.707
732.95
743.53
759.124
779.066
801.01
828.782
858.642
888.68
916.376
940.024
957.909
966.277
956.587
172.033
96.2012
2.8732
2.95571
2.9892
3.06035
3.18896
8.89911
29.6275
54.2767
68.1955
113.126
214.244
416.73
672.468
811.772
849.654
883.302
916.275
945.944
971.106
989.798
1000.68
2.87264
2.85938
2.91164
2.92438
2.95625
2.98837
2.9952
2.92096
2.85775
2.88463
3.09946
3.05366
3.12694
3.15924
3.1511
3.21155
53.0247
345.36
924.378
959.183
989.563
1019.05
1046.02
2.86414
2.87463
2.88716
2.89966
2.9164
2.93006
2.92821
2.90305
2.86738
2.82519
2.97369
2.95536
3.04265
3.09863
3.19198
3.26124
3.14477
3.20406
3.269
81.7064
525.104
1051.04
1089.8
2.83516
2.85117
2.85793
2.86721
2.87806
2.88652
2.88819
2.8824
2.87496
2.87106
2.8905
2.94292
2.99296
3.02778
3.06378
3.10232
3.13906
3.1833
3.21476
3.25064
3.34429
3.62089
516.253
2.79645
2.81851
2.82459
2.83249
2.84134
2.84931
2.85494
2.85873
2.86384
2.87467
2.89368
2.92671
2.96533
2.99945
3.03644
3.0745
3.11439
3.15793
3.19871
3.23687
3.25801
3.23338
3.17338
2.75227
2.78011
2.78804
2.79613
2.80491
2.81383
2.82254
2.83162
2.84273
2.85789
2.87843
2.90576
2.93709
2.97073
3.00571
3.04166
3.07841
3.11573
3.14536
3.15355
3.1252
3.74582
3.69158
2.71206
2.73975
2.74982
2.7585
2.76789
2.77799
2.78893
2.80116
2.81556
2.83311
2.85454
2.88025
2.90942
2.94087
2.97365
3.00666
3.03823
3.06439
3.07384
3.11325
3.14036
2.67333
3.12443
2.67826
2.70176
2.71107
2.71988
2.72975
2.74086
2.75337
2.76762
2.78409
2.80327
2.82556
2.85107
2.87942
2.90976
2.94107
2.97187
2.99965
3.01917
3.01734
2.95111
2.83992
2.67869
2.58342
2.64163
2.66397
2.67154
2.67994
2.69006
2.7019
2.71554
2.73119
2.74913
2.76964
2.7929
2.81891
2.84737
2.87763
2.90871
2.93917
2.96669
2.98703
2.99131
2.95702
2.8758
2.84311
2.85827
2.60107
2.62422
2.63012
2.63811
2.64836
2.66072
2.67522
2.69196
2.71111
2.73284
2.75722
2.78418
2.81345
2.84453
2.87666
2.90875
2.93923
2.96575
2.98471
2.99054
2.97873
3.00514
3.19077
2.55665
2.58123
2.58622
2.59395
2.60429
2.61708
2.6323
2.64998
2.67025
2.69318
2.7188
2.747
2.77759
2.81021
2.84441
2.87953
2.9148
2.94936
2.98249
3.0143
3.04809
3.09422
3.15841
2.50837
2.53478
2.53943
2.54708
2.55757
2.57077
2.58665
2.60522
2.62655
2.65066
2.67757
2.70721
2.73947
2.77416
2.81107
2.84997
2.89064
2.93304
2.9775
3.02512
3.07814
3.13858
3.20672
2.45622
2.48466
2.48931
2.49709
2.50783
2.52147
2.53799
2.5574
2.57972
2.60499
2.63323
2.66446
2.69863
2.73571
2.77568
2.81858
2.86452
2.91381
2.96697
3.02484
3.0883
3.15759
3.23241
2.40023
2.43072
2.43559
2.44361
2.45469
2.46881
2.48595
2.50614
2.52942
2.55583
2.58545
2.61833
2.65454
2.69415
2.73726
2.78407
2.83483
2.88996
2.94991
3.01517
3.08595
3.16204
3.24293
2.34052
2.37303
2.37819
2.38653
2.39798
2.41256
2.4303
2.45123
2.47542
2.50295
2.53392
2.56846
2.60669
2.64876
2.69489
2.74533
2.80039
2.86048
2.92595
2.99706
3.07379
3.15574
3.24232
2.27724
2.31174
2.3172
2.32583
2.33764
2.35266
2.37094
2.39255
2.41758
2.44615
2.4784
2.51448
2.55459
2.59893
2.64779
2.70146
2.76029
2.82463
2.89478
2.97087
3.0528
3.14014
3.23224
2.21046
2.24691
2.25263
2.26152
2.27364
2.28904
2.3078
2.33001
2.35578
2.38526
2.41862
2.45605
2.4978
2.54412
2.59533
2.65178
2.71381
2.7818
2.85598
2.93648
3.02317
3.11564
3.21324
2.1402
2.17855
2.18448
2.19357
2.20592
2.22163
2.24076
2.26345
2.28982
2.32004
2.3543
2.39285
2.43594
2.48387
2.537
2.59571
2.66039
2.73142
2.80907
2.89347
2.98455
3.08197
3.18509
2.06643
2.10665
2.1127
2.1219
2.13442
2.15033
2.16973
2.19275
2.21954
2.25029
2.28521
2.32456
2.36864
2.41777
2.47234
2.53277
2.5995
2.67295
2.75345
2.8412
2.93626
3.03842
3.14709
1.98912
2.03116
2.03723
2.04648
2.05907
2.07507
2.0946
2.11779
2.1448
2.17584
2.21112
2.25094
2.2956
2.34547
2.40095
2.46251
2.53063
2.6058
2.68844
2.77888
2.87741
2.984
3.09817
1.90824
1.95203
1.95804
1.96726
1.97982
1.9958
2.01531
2.03849
2.06549
2.09655
2.13188
2.17179
2.2166
2.26669
2.3225
2.38452
2.4533
2.52938
2.6133
2.70563
2.80692
2.9174
3.03681
1.82372
1.86923
1.87512
1.88425
1.89669
1.91252
1.93184
1.9548
1.98156
2.01235
2.0474
2.087
2.13149
2.18126
2.23676
2.29852
2.36711
2.44315
2.52734
2.6205
2.72348
2.83692
2.96103
1.73553
1.78275
1.7885
1.79748
1.80969
1.82523
1.8442
1.86674
1.89301
1.92323
1.95764
1.99652
2.04021
2.08908
2.1436
2.2043
2.27178
2.34671
2.42994
2.52251
2.62563
2.74054
2.8683
1.64376
1.69263
1.69825
1.70701
1.7189
1.73401
1.75245
1.77435
1.79989
1.82924
1.86266
1.9004
1.94278
1.99017
2.04302
2.10184
2.16721
2.23983
2.32064
2.41086
2.51201
2.62604
2.75533
1.54853
1.599
1.60447
1.61294
1.62439
1.63894
1.65668
1.67775
1.70229
1.73049
1.76256
1.79874
1.83934
1.88467
1.93515
1.99125
2.0535
2.12257
2.19937
2.28515
2.38162
2.49131
2.61812
1.45
1.50203
1.50731
1.51541
1.52632
1.54017
1.55705
1.57707
1.60038
1.62714
1.65753
1.69178
1.73012
1.77285
1.82031
1.8729
1.93106
1.99535
2.06654
2.14572
2.23445
2.3353
2.45291
1.34843
1.40191
1.40694
1.41458
1.42486
1.43787
1.45373
1.47252
1.49438
1.51944
1.54785
1.5798
1.61547
1.65509
1.69894
1.7473
1.80052
1.85895
1.92313
1.99377
2.07195
2.15942
2.2595
1.24417
1.29888
1.30359
1.31067
1.3202
1.33226
1.34695
1.36435
1.38455
1.40767
1.43383
1.46316
1.4958
1.5319
1.57163
1.61518
1.66275
1.71449
1.77059
1.83133
1.89706
1.96826
2.04559
1.13757
1.19322
1.1975
1.20392
1.21259
1.22359
1.23698
1.25282
1.27119
1.29217
1.31585
1.34229
1.3716
1.40382
1.43904
1.47733
1.51874
1.5632
1.61056
1.66067
1.71321
1.76754
1.82241
1.02887
1.08518
1.0889
1.09458
1.1023
1.11212
1.12409
1.13824
1.15463
1.1733
1.19429
1.21764
1.24337
1.27146
1.30189
1.3346
1.36951
1.40635
1.44467
1.48389
1.52316
1.56109
1.59537
0.918229
0.974968
0.978047
0.982883
0.989572
0.998137
1.00859
1.02094
1.03522
1.05145
1.06962
1.08971
1.11169
1.13548
1.16094
1.1879
1.21613
1.24519
1.27439
1.30274
1.32891
1.35081
1.36506
0.805681
0.862767
0.865148
0.869098
0.874702
0.881944
0.890806
0.901288
0.913377
0.927057
0.942291
0.959022
0.977162
0.996558
1.01699
1.03815
1.05967
1.08098
1.10118
1.11891
1.13232
1.13853
1.13256
0.691263
0.748713
0.750406
0.753466
0.757961
0.763845
0.771073
0.779624
0.789462
0.800538
0.812784
0.826103
0.840359
0.855344
0.87076
0.886203
0.901156
0.91493
0.926465
0.934137
0.935558
0.926999
0.902047
0.575127
0.632988
0.634045
0.636243
0.639631
0.64414
0.64971
0.656299
0.663852
0.672295
0.681531
0.691431
0.701817
0.712438
0.72294
0.732844
0.741522
0.748165
0.751621
0.750113
0.740903
0.719742
0.679603
0.457576
0.515835
0.516331
0.517707
0.520001
0.523132
0.527034
0.531651
0.536909
0.542716
0.548953
0.555464
0.56204
0.568394
0.574142
0.578762
0.58157
0.581682
0.577895
0.568402
0.550408
0.519695
0.469875
0.339073
0.397597
0.397577
0.398163
0.399382
0.401145
0.403385
0.406038
0.409016
0.412208
0.415482
0.418665
0.421525
0.423755
0.424954
0.424596
0.422002
0.41629
0.406267
0.390205
0.365534
0.328633
0.274295
0.220047
0.278685
0.278147
0.277959
0.278119
0.27853
0.279125
0.279831
0.280554
0.28117
0.281532
0.28146
0.280711
0.278969
0.275834
0.270806
0.263255
0.25238
0.237085
0.215834
0.18655
0.146473
0.0919335
0.10087
0.159342
0.158237
0.157284
0.156395
0.155474
0.154452
0.153249
0.15176
0.149853
0.147376
0.144142
0.13991
0.134371
0.127144
0.11777
0.105699
0.0902567
0.0705392
0.0453371
0.0132122
-0.0275298
-0.0788655
-0.0166464
0.0398946
0.0381736
0.0364579
0.0345193
0.0322786
0.0296619
0.0265757
0.0229061
0.0185159
0.0132484
0.00691471
-0.000719458
-0.00994486
-0.0211135
-0.0346371
-0.0509809
-0.0706755
-0.0943802
-0.122881
-0.156955
-0.197181
-0.243984
-0.136978
-0.0774345
-0.0797832
-0.0822515
-0.0851792
-0.0886551
-0.0927704
-0.0976285
-0.103348
-0.110069
-0.117948
-0.127174
-0.137974
-0.150614
-0.165411
-0.18272
-0.202935
-0.226466
-0.253723
-0.285054
-0.320586
-0.360001
-0.402256
728.736
738.928
441.685
434.814
919.591
879.647
859.731
839.985
1003.23
1004.9
1009.26
1014.9
1068.79
1082.76
1098.14
1114.64
1124.8
1145.46
1168.06
1192.6
1173.67
1197.91
1221.94
1248.73
3.75599
137.016
561.884
1287.87
3.51231
3.39189
3.29232
3.54604
3.52892
3.36684
3.11667
3.19155
2.76365
2.96845
3.15483
3.29288
3.0002
3.15295
3.3046
3.84702
3.9933
4.94338
5.03774
4.35511
3.22825
3.27056
3.31953
3.36995
3.2733
3.3129
3.3551
3.39947
3.30234
3.34258
3.38423
3.42693
3.31696
3.35869
3.40141
3.44495
3.32083
3.36474
3.40945
3.45485
3.31552
3.36194
3.4091
3.45691
3.3015
3.35066
3.40058
3.45114
3.27856
3.33066
3.38355
3.4371
3.24599
3.30118
3.35723
3.41392
3.20263
3.26104
3.32039
3.38038
3.14693
3.20872
3.27159
3.33504
3.07689
3.1423
3.20906
3.2763
2.98981
3.05921
3.1305
3.20236
2.88184
2.95578
3.03301
3.11158
2.74693
2.82536
2.91005
3.0001
2.57598
2.65444
2.74383
2.84731
2.36222
2.42717
2.50049
2.5866
2.11783
2.15852
2.19728
2.23088
1.86764
1.88953
1.90717
1.91657
1.61847
1.62654
1.63036
1.6267
1.36581
1.3591
1.34575
1.32165
1.10958
1.0861
1.05192
1.00091
0.856626
0.817282
0.76247
0.684255
0.618385
0.569315
0.503072
0.411765
0.401875
0.35165
0.28859
0.209486
0.206419
0.159339
0.103436
0.0381578
0.0282851
-0.013986
-0.0630815
-0.119793
-0.134247
-0.168792
-0.207027
-0.249209
-0.290049
-0.316808
-0.344636
-0.372951
-0.439529
-0.459211
-0.477925
-0.495132
454.38
462.111
245.166
245.276
245.409
245.379
245.349
245.311
245.265
245.213
245.152
245.073
244.948
244.707
244.199
243.014
240.079
237.467
238.621
828.863
864.054
263.2
245.416
245.379
245.351
245.321
245.276
245.219
245.148
245.065
244.962
244.817
244.574
244.144
243.363
242.045
240.853
240.761
1021.24
993.144
245.437
245.338
245.335
245.333
245.303
245.251
245.18
245.091
244.989
244.885
244.757
244.563
244.273
243.862
243.366
243.073
242.933
1134.47
566.523
244.911
245.206
245.302
245.335
245.299
245.239
245.154
245.04
244.919
244.824
244.745
244.609
244.45
244.268
244.145
244.22
244.233
1226.39
656.986
245.149
245.162
245.287
245.444
245.311
245.243
245.146
244.994
244.838
244.725
244.761
244.684
244.61
244.546
244.561
244.751
244.862
1287.19
1359.41
648.321
584.376
632.869
284.283
245.243
245.24
245.164
245.312
246.892
244.567
244.71
244.807
244.747
244.716
244.728
244.899
245.104
1322.16
1380.92
1408.08
1389.56
1396.03
1444.84
848.163
245.259
245.236
244.644
280.119
367.899
407.667
244.928
244.913
244.807
244.69
244.77
245.249
123.053
1210.29
1439.9
1455.53
1469.25
1503.34
1553.63
1491.88
452.029
1122.89
1479.97
1496.11
1551.73
1426.31
245.193
244.746
247.522
244.079
244.775
3.26688
3.3467
61.4098
489.105
1082.93
1531.92
1574.92
1618.6
1656.02
1617.87
1584.36
1586.21
1623.07
1685.89
1647.75
1419.62
1627.4
1119.66
249.348
3.36484
3.60561
3.99489
3.67445
3.7342
4.02241
61.8181
488.07
1165.42
1409.4
1319.46
1264.62
1541.3
1690.34
1727.93
1749.07
1806.56
1931.77
653.666
4.5264
4.20255
4.72716
3.69639
3.7696
3.88758
4.00535
4.14606
4.34417
4.65856
4.64644
4.62051
4.79676
36.325
633.511
1799.42
1902.39
2148.87
2138.52
3.44674
3.50446
3.57785
3.69444
3.80888
3.93065
4.04994
4.17938
4.32134
4.46059
4.54922
4.60769
4.70328
4.83303
4.96883
5.67908
1105.75
2168.27
2554.71
3.43393
3.53031
3.62525
3.73107
3.84727
3.96545
4.08576
4.21073
4.33931
4.46205
4.55923
4.63238
4.73969
4.88394
5.01063
5.146
5.66584
1805.46
2478.19
3.45911
3.55988
3.66139
3.76895
3.88212
3.99833
4.11708
4.23807
4.35928
4.47543
4.57713
4.65837
4.76032
4.90222
5.02203
5.11089
5.36722
723.073
2362.77
3.48485
3.58727
3.69205
3.80094
3.9137
4.02917
4.14648
4.26455
4.38163
4.49495
4.59982
4.68908
4.77877
4.90616
5.01996
5.09521
5.12329
297.215
2346.32
3.50403
3.60954
3.71762
3.82863
3.94238
4.05804
4.17447
4.29048
4.4048
4.51565
4.62044
4.71416
4.8001
4.90361
5.00929
5.11674
4.9971
753.282
2401.7
3.51638
3.62617
3.73817
3.8522
3.96802
4.08472
4.20095
4.31555
4.42757
4.53544
4.63722
4.73056
4.81293
4.89445
4.97048
5.07116
1583.98
2447.44
2503.72
3.52163
3.63672
3.7535
3.87143
3.99018
4.10867
4.2253
4.33897
4.44877
4.55305
4.65018
4.73922
4.81788
4.88538
4.93754
5.08244
2068.98
2613.24
2564.21
3.5195
3.64067
3.76294
3.88552
4.00794
4.12892
4.24659
4.35967
4.46712
4.56713
4.65851
4.74169
4.81815
4.88739
4.93943
4.96255
1609.31
2741.5
2800.34
3.5094
3.63717
3.76537
3.89304
4.01967
4.14382
4.26321
4.37613
4.48106
4.5759
4.65965
4.73489
4.8104
4.89795
5.0164
5.15288
2247.42
2653.51
2490.19
3.4904
3.62504
3.75906
3.89163
4.02258
4.15049
4.27256
4.38613
4.4887
4.57713
4.64948
4.7093
4.77328
4.86727
5.02622
5.24962
301.164
559.81
942.064
3.46117
3.60253
3.74139
3.87753
4.01209
4.14417
4.27023
4.38607
4.4874
4.56873
4.62445
4.65409
4.68049
4.73838
4.85986
14.314
2289.13
2503.57
2449.09
3.42023
3.56734
3.7082
3.84454
3.98085
4.1175
4.24955
4.37029
4.47301
4.54917
4.5865
4.56739
4.52681
4.49611
4.49516
462.826
703.927
364.681
320.318
3.36604
3.51651
3.65211
3.78112
3.91622
4.05921
4.20116
4.33076
4.43817
4.5127
4.53184
4.44472
4.34833
4.19036
5.03425
6.23871
3.20082
4.67614
610.91
3.29737
3.44646
3.55804
3.66327
3.79471
3.95167
4.11277
4.25798
4.37313
4.44444
4.44073
4.35594
5.68321
4.06983
3.79389
3.29955
2.94824
3.52645
1984.59
3.21513
3.35633
3.38924
3.43582
3.57128
3.76839
3.97071
4.14534
4.27543
4.34822
4.33476
4.15069
6.16513
4.23147
3.84218
3.49678
13.9346
8.112
1026.59
3.12073
3.23497
2.99857
2.95268
3.15832
3.47502
3.76606
3.99502
4.15528
4.24825
4.26531
4.1894
6.09304
5.81872
3.9837
12.5952
15.6212
7.67247
1719.85
3.00769
4.59797
13.9559
8.9671
2.41524
3.02112
3.51106
3.82247
4.02627
4.15987
4.23557
4.26573
4.57834
4.63904
9.45032
4.90001
5.24464
15.6081
1767.12
2.72371
83.6454
5.72455
2.9918
3.7439
2.6265
3.26184
3.65096
3.89432
4.07958
4.22686
4.35397
4.43949
6.03857
10.0327
5.12425
11.2591
6.32727
908.108
2.25636
86.1352
3.36754
62.1909
23.7506
4.3953
3.28244
3.4993
3.73339
3.9838
4.21696
4.44163
4.61565
4.70277
5.09162
11.7258
9.01904
6.56318
18.4336
1.90719
11.2742
77.5013
70.0897
57.2081
62.5136
4.10238
3.31228
3.43413
3.8176
4.16926
4.50071
4.78821
5.02188
10.4064
12.6508
6.62463
6.54016
6.83059
1.6058
1.42714
51.1668
5.45404
0.994142
1.41335
43.9563
18.8533
2.75874
3.49227
4.03818
4.49634
4.89115
5.22865
11.0327
6.98461
6.58226
6.62593
1378.97
1.26591
1.00183
0.332556
-0.127406
0.47095
1.03172
1.22586
29.605
1.93893
2.95627
3.81046
4.42091
4.94418
5.62845
6.15959
6.31865
16.6538
6.68299
572.875
0.898913
0.5085
-0.102392
-0.166683
1.30726
2.07328
1.25132
4.41724
4.59047
2.355
3.50561
4.28707
4.98181
6.57298
6.78677
16.7545
17.3408
6.90702
158.468
0.52717
0.0189676
-0.597893
1.35148
1.49084
-0.505427
-0.68106
-0.0948862
4.72903
1.84608
3.14185
4.0669
6.07064
8.48015
8.44247
9.4787
8.87309
82.5388
372.87
0.225532
3.20588
4.69544
-0.362086
0.215925
-0.755438
-1.11412
-0.490684
0.00566033
1.56977
2.73728
3.86737
6.93248
7.07509
7.30461
372.591
505.302
506.173
319.046
0.068832
0.970694
50.5099
-0.352845
0.167707
-0.654916
-0.828693
-0.287079
0.453929
1.60468
2.55849
6.95772
5.88616
85.5504
329.429
2.80049
-1.54726
-1.75493
1.76371
-0.0628463
0.909857
2.87195
116.524
-0.145674
-0.0745817
-0.223295
0.175724
3.12078
6.29993
7.06458
5.1232
4.93349
358.351
-1.59797
-1.47135
-1.70488
-2.09851
-2.15177
-0.208406
-0.11462
2.83615
141.305
182.122
1.15293
0.170809
0.352698
6.41978
6.66963
4.05496
2.71973
295.862
-2.22163
-3.17779
-2.12889
-1.88917
-1.83006
-1.73649
-0.312746
-0.521997
78.8352
2.92602
186.005
3.11857
-0.0215737
5.84716
5.67072
0.429419
0.209361
1.95963
128.009
-9.07763
-8.46383
-6.09785
-2.43535
-1.57202
-0.995933
-0.409283
-0.472882
28.5648
18.4845
0.022284
2.84955
1.3631
2.21553
-0.641456
-0.788293
-2.20554
134.605
-10.5821
-13.6394
384.527
-4.33673
-2.30293
-1.36668
-1.09605
-0.513299
-0.535623
-0.745233
-0.381874
0.0779279
0.0167933
0.194797
-0.271212
-0.699089
-1.12317
-3.54911
71.8095
-6.56745
484.2
488.849
-0.954328
-1.63973
-1.14241
9.45745
745.741
751.652
756.937
754.383
749.935
748.218
749.791
754.104
760.821
769.887
781.418
795.634
812.818
833.298
857.217
884.811
914.894
939.093
944.795
951.806
942.977
926.105
982.108
744.247
750.268
755.428
752.974
748.88
747.497
749.27
753.659
760.377
769.413
780.91
795.098
812.217
832.464
855.916
882.318
910.342
935.5
947.181
949.033
951.262
874.365
964.574
740.955
747.044
751.987
749.855
746.576
745.911
748.086
752.614
759.324
768.295
779.721
793.856
810.932
831.058
854.142
879.604
905.651
928.287
943.174
956.841
965.552
825.832
937.129
735.943
742.056
746.884
745.454
743.361
743.628
746.283
750.956
757.633
766.504
777.828
791.893
808.923
828.961
851.754
876.526
901.491
923.505
939.731
953.431
952.724
843.555
947.217
729.355
735.441
740.529
740.309
739.59
740.791
743.877
748.647
755.257
764.002
775.197
789.179
806.182
826.181
848.8
873.156
897.545
919.413
936.513
948.701
948.519
908.419
991.479
721.391
727.327
733.368
734.898
735.49
737.443
740.827
745.624
752.142
760.744
771.786
785.675
802.681
822.719
845.31
869.53
893.779
915.854
933.82
946.76
952.644
959.094
1030.39
712.402
717.462
725.931
729.562
731.084
733.521
737.052
741.812
748.23
756.69
767.553
781.335
798.385
818.556
841.278
865.635
890.13
912.74
931.679
946.019
956.152
974.549
1036.95
702.901
705.04
718.264
724.531
726.244
728.899
732.463
737.149
743.493
751.814
762.428
776.064
793.213
813.654
836.672
861.426
886.534
910.001
930.098
945.841
957.754
972.857
1002.48
245.627
245.618
245.565
245.507
245.465
245.435
245.412
245.396
245.393
245.407
245.453
245.549
245.727
246.044
246.616
247.665
250.479
258.3
262.992
245.625
245.622
245.565
245.504
245.463
245.433
245.41
245.394
245.389
245.402
245.444
245.534
245.701
245.992
246.501
247.344
249.705
257.88
263.267
245.623
245.632
245.563
245.498
245.458
245.429
245.406
245.388
245.38
245.388
245.421
245.494
245.628
245.845
246.179
246.58
247.726
256.213
263.983
245.616
245.648
245.557
245.486
245.45
245.423
245.398
245.378
245.366
245.366
245.386
245.435
245.52
245.632
245.71
245.41
243.907
251.833
266.158
245.596
245.665
245.538
245.467
245.439
245.414
245.389
245.366
245.347
245.338
245.342
245.362
245.39
245.38
245.163
243.981
238.263
256.171
278.531
245.565
245.636
245.456
245.437
245.427
245.404
245.377
245.35
245.325
245.305
245.291
245.28
245.249
245.119
244.632
242.717
237.057
246.267
395.236
245.512
245.616
245.388
245.397
245.414
245.393
245.364
245.333
245.301
245.269
245.238
245.196
245.11
244.88
244.201
241.976
235.828
236.403
408.444
245.507
249.292
245.364
245.354
245.402
245.381
245.35
245.314
245.274
245.232
245.183
245.115
244.984
244.683
243.912
241.741
236.392
236.533
422
694.392
687.923
706.855
717.157
719.077
721.829
725.3
729.826
736.114
744.296
754.517
767.904
785.278
806.234
829.8
855.503
881.961
906.938
928.775
946.181
958.11
959.083
873.463
725.896
672.189
617.676
695.958
700.764
705.537
709.006
713.12
720.376
728.868
737.634
750.724
768.713
789.829
814.787
843.288
873.966
902.866
928.83
949.818
963.653
964.483
943.702
494.632
2.86776
2.95918
2.96952
3.01699
3.13244
3.78458
17.1215
44.2196
59.9086
85.1665
154.757
299.233
553.621
780.101
829.183
867.359
899.76
931.629
959.265
981.304
996.393
1002.88
2.91705
2.88716
2.92342
2.94293
2.972
2.99994
2.96493
2.88812
2.81198
3.07059
3.05194
3.10163
3.14079
3.14644
3.18151
12.4649
141.685
715.327
941.686
975.087
1004.39
1032.84
1058.8
2.87496
2.87844
2.89218
2.90787
2.92418
2.93205
2.91778
2.88672
2.84285
3.02868
2.92336
2.98782
3.07498
3.13264
3.23758
3.21968
3.1777
3.19807
9.8106
237.291
967.388
1070.66
1109.51
2.84926
2.85379
2.86206
2.87263
2.88287
2.88841
2.88594
2.87842
2.87351
2.87189
2.91856
2.96908
3.0125
3.04536
3.08311
3.12021
3.16004
3.19423
3.23478
3.28655
3.32936
118.888
1117.92
2.81562
2.82101
2.82825
2.83688
2.84555
2.85245
2.85692
2.86083
2.8685
2.88233
2.9093
2.94428
2.9819
3.01779
3.05548
3.09368
3.13663
3.17836
3.21969
3.25216
3.24749
3.1771
3.25325
2.77442
2.78382
2.79191
2.80045
2.80939
2.8182
2.82695
2.83679
2.84971
2.86736
2.89133
2.92109
2.95368
2.98811
3.02355
3.05997
3.09696
3.13172
3.15459
3.13749
3.34163
3.70758
3.4797
2.73121
2.74493
2.75404
2.76311
2.77285
2.78334
2.79483
2.80802
2.82389
2.8433
2.86687
2.89449
2.92492
2.95715
2.99022
3.02278
3.05241
3.0725
3.06232
3.25916
2.80489
2.61001
3.41681
2.69473
2.70673
2.71537
2.72467
2.73514
2.74692
2.76025
2.77554
2.79331
2.81402
2.83792
2.86494
2.8944
2.92538
2.95665
2.98637
3.01097
3.02225
2.99831
2.90756
2.74262
2.61496
2.62636
2.66119
2.66788
2.67552
2.68479
2.69576
2.70848
2.7231
2.73986
2.75905
2.78092
2.80557
2.83287
2.86233
2.89314
2.92414
2.9535
2.97815
2.99203
2.98208
2.91072
2.85796
2.84382
2.90637
2.62292
2.62696
2.63382
2.64296
2.65428
2.6677
2.6833
2.70122
2.72165
2.7447
2.77039
2.79856
2.82881
2.86053
2.8928
2.92432
2.95317
2.97647
2.98983
2.98315
2.98595
3.02932
3.84021
2.58046
2.58337
2.58974
2.5988
2.61038
2.62438
2.64082
2.65979
2.68138
2.70566
2.73259
2.76202
2.79368
2.82715
2.8619
2.8972
2.93223
2.96613
2.99848
3.03024
3.06896
3.12492
3.19695
2.53407
2.53671
2.54289
2.55198
2.56384
2.57838
2.5956
2.61554
2.63825
2.66376
2.69205
2.72303
2.75652
2.79235
2.83028
2.87009
2.91162
2.95497
3.00081
3.05078
3.10743
3.17155
3.24395
2.48381
2.48658
2.49282
2.50209
2.51429
2.52937
2.54733
2.56819
2.59198
2.61874
2.64847
2.68118
2.71681
2.75533
2.79676
2.84116
2.88872
2.93986
2.99526
3.05583
3.12224
3.19431
3.27193
2.42968
2.43274
2.43921
2.44877
2.46137
2.477
2.49567
2.51739
2.54223
2.57024
2.60148
2.63602
2.67392
2.71526
2.76019
2.80893
2.86182
2.9193
2.98185
3.04987
3.12337
3.20191
3.2851
2.37177
2.3752
2.38197
2.39186
2.40488
2.42104
2.44036
2.46291
2.48876
2.518
2.55073
2.5871
2.62723
2.67131
2.71955
2.77226
2.82979
2.89252
2.9608
3.03474
3.11415
3.19849
3.28716
2.31023
2.31406
2.32112
2.33133
2.34474
2.36139
2.38133
2.40463
2.43142
2.46181
2.49595
2.53402
2.57621
2.62278
2.674
2.73021
2.79175
2.85896
2.93208
3.01112
3.09583
3.18564
3.27985
2.24519
2.24937
2.25668
2.26717
2.28092
2.298
2.31847
2.34244
2.37004
2.40144
2.43681
2.47637
2.52037
2.56909
2.62288
2.68207
2.74704
2.8181
2.89544
2.97907
3.06872
3.16385
3.2637
2.17668
2.18114
2.18862
2.19933
2.21335
2.23076
2.25166
2.27617
2.30444
2.33665
2.37302
2.41381
2.45928
2.50976
2.56564
2.62728
2.69509
2.7694
2.85043
2.93819
3.0325
3.13287
3.23852
2.10468
2.10932
2.11689
2.12774
2.14194
2.15959
2.18078
2.20566
2.23441
2.26721
2.30431
2.34599
2.39255
2.44435
2.5018
2.56532
2.63536
2.7123
2.79641
2.88783
2.98648
3.09199
3.20359
2.02918
2.03385
2.04144
2.05235
2.06664
2.08439
2.10573
2.13081
2.1598
2.19293
2.23044
2.27264
2.31986
2.37248
2.43094
2.49572
2.56731
2.64616
2.73266
2.82713
2.92971
3.04018
3.15779
1.95013
1.95468
1.96223
1.97312
1.98738
2.00511
2.02643
2.0515
2.0805
2.11366
2.15124
2.19356
2.24096
2.29385
2.3527
2.41803
2.49039
2.57032
2.65838
2.75513
2.86101
2.97603
3.09959
1.86747
1.8718
1.87927
1.89005
1.90417
1.92173
1.94286
1.96769
1.99644
2.02933
2.06661
2.10861
2.15569
2.20826
2.26682
2.33192
2.40416
2.48418
2.57275
2.67071
2.77886
2.89765
3.02693
1.78109
1.78522
1.79259
1.80318
1.81704
1.83428
1.85501
1.8794
1.90762
1.9399
1.9765
2.01774
2.06397
2.1156
2.17314
2.23715
2.30826
2.38723
2.47499
2.57268
2.68154
2.80277
2.93714
1.69105
1.69503
1.70224
1.71255
1.72604
1.7428
1.76296
1.78665
1.81407
1.84543
1.88097
1.92099
1.96582
2.01588
2.07165
2.13366
2.20256
2.27915
2.36449
2.45996
2.56728
2.68862
2.82646
1.59747
1.60133
1.60833
1.61828
1.63127
1.6474
1.66679
1.68957
1.71592
1.74602
1.78012
1.81847
1.86139
1.90924
1.96247
2.02157
2.08714
2.15994
2.24104
2.33192
2.43461
2.55227
2.6896
1.50052
1.50428
1.51101
1.5205
1.53288
1.54822
1.56666
1.58831
1.61332
1.64187
1.67416
1.71042
1.75091
1.79596
1.84593
1.90125
1.96239
2.03002
2.10505
2.18876
2.28314
2.39158
2.52032
1.40039
1.40407
1.41043
1.41938
1.43102
1.44544
1.46275
1.48306
1.5065
1.53322
1.56337
1.59715
1.63477
1.67647
1.72254
1.77328
1.82906
1.89028
1.95759
2.03184
2.11436
2.20756
2.31592
1.29739
1.30091
1.30682
1.31512
1.32591
1.33927
1.3553
1.37409
1.39574
1.42037
1.44809
1.47906
1.51341
1.5513
1.59291
1.63846
1.68809
1.74198
1.80036
1.86354
1.93193
2.00611
2.08653
1.19188
1.19506
1.20041
1.20797
1.2178
1.22998
1.24459
1.26168
1.28135
1.30367
1.32872
1.35658
1.38734
1.42105
1.4578
1.49765
1.54059
1.58653
1.63529
1.68667
1.74022
1.79502
1.84924
1.08412
1.08676
1.09146
1.09817
1.10694
1.11783
1.13089
1.14615
1.16367
1.1835
1.20567
1.23021
1.25712
1.28639
1.31796
1.35179
1.38771
1.42536
1.46421
1.50359
1.54241
1.57892
1.61011
0.974298
0.976241
0.980196
0.985987
0.993621
1.00313
1.01452
1.02784
1.04309
1.06029
1.07942
1.10047
1.12337
1.14801
1.17425
1.20188
1.23059
1.25983
1.28874
1.3162
1.34057
1.35921
1.36781
0.86248
0.863696
0.866869
0.871688
0.878121
0.886172
0.895845
0.907133
0.92002
0.934482
0.950474
0.967923
0.986715
1.00666
1.0275
1.04889
1.0704
1.0913
1.11046
1.1263
1.13658
1.13753
1.12266
0.74871
0.749295
0.751701
0.75553
0.760734
0.767293
0.775185
0.784385
0.79485
0.806521
0.819316
0.833125
0.847777
0.863021
0.878509
0.893779
0.908245
0.921064
0.930909
0.935823
0.93284
0.917155
0.880119
0.633121
0.633248
0.634933
0.637787
0.641751
0.646795
0.65288
0.659959
0.667968
0.676822
0.686408
0.696576
0.707117
0.717732
0.728003
0.73738
0.745158
0.750383
0.751631
0.74669
0.732164
0.702655
0.648761
0.515981
0.515812
0.51684
0.518741
0.521468
0.52499
0.529257
0.534205
0.539751
0.54579
0.552185
0.55876
0.565266
0.571373
0.576632
0.580444
0.582027
0.58037
0.574011
0.560688
0.53698
0.497675
0.434634
0.397676
0.397307
0.39773
0.3987
0.400201
0.402209
0.404664
0.407493
0.410593
0.413845
0.417098
0.420153
0.422742
0.424514
0.425009
0.423628
0.419601
0.41191
0.399128
0.379149
0.348878
0.304058
0.238237
0.278655
0.278126
0.277959
0.278005
0.278297
0.278809
0.27947
0.280197
0.280884
0.281393
0.281563
0.281188
0.279988
0.277605
0.273593
0.267391
0.258293
0.245369
0.227319
0.202351
0.168066
0.121274
0.0576489
0.159191
0.158491
0.157719
0.156841
0.155942
0.15498
0.153879
0.152548
0.150867
0.148696
0.145867
0.142169
0.137327
0.130996
0.122758
0.11211
0.0984487
0.0810011
0.0587114
0.0302353
-0.00595702
-0.0517616
-0.109273
0.0396342
0.0387728
0.0373332
0.0355223
0.0334398
0.0310218
0.0281834
0.024822
0.0208105
0.0160025
0.0102274
0.0032763
-0.00511301
-0.0152623
-0.0275527
-0.0424265
-0.0603725
-0.08198
-0.107983
-0.139176
-0.176278
-0.219735
-0.269933
-0.0773449
-0.0787372
-0.0809643
-0.0836522
-0.0868435
-0.0906267
-0.0950988
-0.100372
-0.106573
-0.113852
-0.122379
-0.132361
-0.144045
-0.157721
-0.173726
-0.192438
-0.21426
-0.239604
-0.268864
-0.302301
-0.339849
-0.380876
-0.423842
747.625
543.347
437.304
430.223
898.251
867.948
850.181
832.781
1003.7
1006.79
1012.09
1017.61
1075.63
1090.24
1106.32
1122.64
1134.87
1156.54
1180.08
1205.71
1185.52
1209.76
1234.96
1263.07
24.4617
313.718
977.003
1299.93
3.54682
3.30303