/*--------------------------------*- C++ -*----------------------------------*\
| =========                 |                                                 |
| \\      /  F ield         | OpenFOAM: The Open Source CFD Toolbox           |
|  \\    /   O peration     | Version:  v1912                                 |
|   \\  /    A nd           | Website:  www.openfoam.com                      |
|    \\/     M anipulation  |                                                 |
\*---------------------------------------------------------------------------*/
FoamFile
{
    version     2.0;
    format      ascii;
    class       surfaceScalarField;
    location    "0.45";
    object      phi;
}
// * * * * * * * * * * * * * * * * * * * * * * * * * * * * * * * * * * * * * //

dimensions      [0 3 -1 0 0 0 0];
oriented        oriented;


internalField   nonuniform List<scalar> 
17936
(
-1.31282e-06
2.79147e-06
-1.47864e-06
1.80992e-06
-1.14671e-06
-6.6321e-07
-3.50049e-07
2.28532e-06
-1.93527e-06
-4.29926e-06
6.13469e-06
-1.83542e-06
-7.66482e-06
8.85856e-06
-1.19374e-06
-9.74287e-06
1.03743e-05
-6.31443e-07
-1.08197e-05
1.11433e-05
-3.23568e-07
-1.13992e-05
1.16282e-05
-2.28953e-07
-1.18568e-05
1.20989e-05
-2.42171e-07
-1.23584e-05
1.26315e-05
-2.73078e-07
-1.29097e-05
1.31819e-05
-2.7219e-07
-1.34359e-05
1.36593e-05
-2.23418e-07
-1.38403e-05
1.39659e-05
-1.25632e-07
-1.40208e-05
1.39751e-05
4.56825e-08
-1.3779e-05
1.33864e-05
3.9261e-07
-1.27389e-05
1.17552e-05
9.83735e-07
-1.03241e-05
8.30843e-06
2.01562e-06
-5.61712e-06
2.34116e-06
3.27596e-06
1.00173e-06
-3.49994e-06
2.4982e-06
5.32108e-06
-6.29346e-06
9.72375e-07
3.12933e-06
2.20984e-06
-5.33917e-06
1.1066e-06
-1.04408e-05
9.33419e-06
1.35021e-05
-7.7224e-06
-5.77974e-06
-4.2299e-06
5.63083e-06
-1.40093e-06
1.79577e-06
-1.05373e-06
1.38977e-06
-2.13181e-06
-5.09175e-07
2.468e-06
3.89579e-06
-5.85461e-06
-4.46113e-06
6.2548e-06
3.67645e-06
-5.47012e-06
-7.74144e-06
8.90433e-06
2.40255e-06
-3.56544e-06
-9.7795e-06
1.04263e-05
1.2982e-06
-1.94504e-06
-1.09087e-05
1.12842e-05
6.93719e-07
-1.06925e-06
-1.15997e-05
1.18895e-05
5.00336e-07
-7.90171e-07
-1.21761e-05
1.24715e-05
5.17179e-07
-8.1253e-07
-1.27789e-05
1.30954e-05
5.73356e-07
-8.89824e-07
-1.34135e-05
1.37234e-05
5.71566e-07
-8.8146e-07
-1.40142e-05
1.4275e-05
4.78064e-07
-7.38792e-07
-1.44952e-05
1.46653e-05
2.91359e-07
-4.61542e-07
-1.47759e-05
1.48184e-05
1.31113e-08
-5.55794e-08
-1.47866e-05
1.46769e-05
-3.92524e-07
5.02169e-07
-1.44952e-05
1.42593e-05
-1.09878e-06
1.33466e-06
-1.40081e-05
1.37979e-05
-2.61039e-06
2.82053e-06
-1.36141e-05
1.32199e-05
-5.49995e-06
5.89416e-06
-1.19748e-05
9.16804e-06
-7.18998e-06
9.99673e-06
-5.05096e-06
6.91794e-07
-2.97683e-06
7.336e-06
3.4386e-06
-7.08366e-06
5.29343e-06
-1.64837e-06
1.09161e-05
-1.3979e-05
-1.55038e-05
1.85667e-05
1.33282e-05
-8.39467e-06
1.20483e-05
-1.69819e-05
-6.99977e-06
8.33736e-06
-1.33759e-06
1.70221e-06
-8.77074e-07
2.91492e-06
-3.74005e-06
-7.27042e-07
2.64876e-06
7.80272e-06
-9.72444e-06
-4.53207e-06
6.17933e-06
7.19829e-06
-8.84555e-06
-7.51851e-06
8.55925e-06
4.67069e-06
-5.71143e-06
-9.35245e-06
9.96157e-06
2.5716e-06
-3.18072e-06
-1.04466e-05
1.08568e-05
1.45787e-06
-1.86811e-06
-1.12291e-05
1.15882e-05
1.10974e-06
-1.46883e-06
-1.19482e-05
1.23145e-05
1.13933e-06
-1.50567e-06
-1.26862e-05
1.30578e-05
1.23115e-06
-1.6027e-06
-1.3421e-05
1.37663e-05
1.20756e-06
-1.55288e-06
-1.40842e-05
1.43653e-05
1.0089e-06
-1.29002e-06
-1.46012e-05
1.47843e-05
6.37474e-07
-8.20561e-07
-1.49077e-05
1.49651e-05
1.05031e-07
-1.62457e-07
-1.495e-05
1.48573e-05
-6.10781e-07
7.03488e-07
-1.46828e-05
1.44249e-05
-1.62316e-06
1.88109e-06
-1.40873e-05
1.36888e-05
-3.19911e-06
3.59762e-06
-1.32876e-05
1.30403e-05
-5.91454e-06
6.16188e-06
-1.31652e-05
1.35792e-05
-1.0499e-05
1.00851e-05
-1.34355e-05
1.12932e-05
-1.11988e-05
1.33411e-05
-5.90454e-06
1.48845e-08
-4.37682e-06
1.02665e-05
2.88286e-06
-2.57389e-06
-2.00314e-05
1.97224e-05
2.71095e-06
-2.85163e-06
1.98832e-05
-1.97425e-05
-9.64026e-06
1.0902e-05
-1.26173e-06
1.57096e-06
-6.80519e-07
4.60154e-06
-5.49197e-06
-9.16398e-07
2.73597e-06
1.16026e-05
-1.34222e-05
-4.44931e-06
5.90715e-06
1.04017e-05
-1.18596e-05
-7.07684e-06
7.9923e-06
6.68709e-06
-7.60255e-06
-8.71567e-06
9.3106e-06
3.77854e-06
-4.37347e-06
-9.82918e-06
1.03086e-05
2.30885e-06
-2.78828e-06
-1.07724e-05
1.12329e-05
1.87569e-06
-2.33621e-06
-1.16942e-05
1.21543e-05
1.91738e-06
-2.37749e-06
-1.26077e-05
1.30471e-05
2.00769e-06
-2.44704e-06
-1.34642e-05
1.38508e-05
1.91889e-06
-2.30555e-06
-1.41997e-05
1.45042e-05
1.58285e-06
-1.88731e-06
-1.47585e-05
1.49576e-05
1.01155e-06
-1.2107e-06
-1.50972e-05
1.51733e-05
2.28872e-07
-3.05e-07
-1.51825e-05
1.51225e-05
-7.80012e-07
8.40031e-07
-1.4993e-05
1.47974e-05
-2.10596e-06
2.30156e-06
-1.45444e-05
1.42496e-05
-3.94185e-06
4.23658e-06
-1.39352e-05
1.36236e-05
-6.50855e-06
6.82016e-06
-1.33523e-05
1.32663e-05
-9.8315e-06
9.91759e-06
-1.35561e-05
1.37689e-05
-1.38646e-05
1.36517e-05
-1.27701e-05
9.94059e-06
-1.53484e-05
1.81779e-05
-8.5435e-06
8.63809e-06
-1.89207e-05
1.88261e-05
-6.64947e-06
3.24316e-06
1.76335e-05
-1.42272e-05
-1.21133e-05
1.32619e-05
-1.14852e-06
1.4136e-06
-4.74259e-07
6.40759e-06
-7.34693e-06
-1.0808e-06
2.74575e-06
1.51707e-05
-1.68356e-05
-4.24517e-06
5.49365e-06
1.32124e-05
-1.44608e-05
-6.50236e-06
7.32178e-06
8.46578e-06
-9.28521e-06
-8.01285e-06
8.63066e-06
4.97511e-06
-5.59292e-06
-9.21539e-06
9.79038e-06
3.31315e-06
-3.88815e-06
-1.03651e-05
1.09395e-05
2.85358e-06
-3.42796e-06
-1.1508e-05
1.20628e-05
2.88621e-06
-3.44101e-06
-1.25955e-05
1.30982e-05
2.91955e-06
-3.42226e-06
-1.35642e-05
1.39879e-05
2.71168e-06
-3.13532e-06
-1.43645e-05
1.46904e-05
2.20283e-06
-2.5287e-06
-1.49625e-05
1.51782e-05
1.41808e-06
-1.63382e-06
-1.53354e-05
1.54322e-05
3.91254e-07
-4.87996e-07
-1.54668e-05
1.54392e-05
-8.83699e-07
9.11359e-07
-1.53508e-05
1.52067e-05
-2.47027e-06
2.6144e-06
-1.5016e-05
1.47928e-05
-4.4925e-06
4.71564e-06
-1.45564e-05
1.43286e-05
-7.08158e-06
7.30931e-06
-1.41247e-05
1.39241e-05
-1.01343e-05
1.03349e-05
-1.37523e-05
1.37372e-05
-1.3442e-05
1.34571e-05
-1.41226e-05
1.46972e-05
-1.8847e-05
1.82725e-05
-1.53401e-05
1.49518e-05
-1.92681e-05
1.96565e-05
-1.22244e-05
6.86023e-06
9.82225e-06
-4.45806e-06
-1.43299e-05
1.5293e-05
-9.63113e-07
1.20689e-06
-3.19115e-07
8.29187e-06
-9.17965e-06
-1.0043e-06
2.46456e-06
1.84037e-05
-1.98639e-05
-3.861e-06
5.0253e-06
1.56327e-05
-1.6797e-05
-5.94782e-06
6.71311e-06
1.007e-05
-1.08353e-05
-7.40371e-06
8.071e-06
6.23416e-06
-6.90145e-06
-8.74017e-06
9.41849e-06
4.51547e-06
-5.19379e-06
-1.01017e-05
1.07792e-05
4.05666e-06
-4.73422e-06
-1.14389e-05
1.20697e-05
4.03711e-06
-4.66792e-06
-1.26631e-05
1.32131e-05
3.95106e-06
-4.50105e-06
-1.37157e-05
1.4168e-05
3.57441e-06
-4.02667e-06
-1.45678e-05
1.49138e-05
2.86464e-06
-3.21058e-06
-1.52048e-05
1.544e-05
1.85864e-06
-2.09388e-06
-1.56185e-05
1.57392e-05
5.9589e-07
-7.16548e-07
-1.58012e-05
1.58049e-05
-9.23417e-07
9.19722e-07
-1.57529e-05
1.56511e-05
-2.73631e-06
2.8382e-06
-1.55086e-05
1.5338e-05
-4.9105e-06
5.0811e-06
-1.51542e-05
1.49724e-05
-7.51239e-06
7.69416e-06
-1.48079e-05
1.46691e-05
-1.04957e-05
1.06344e-05
-1.45475e-05
1.44132e-05
-1.35958e-05
1.37301e-05
-1.4407e-05
1.49765e-05
-1.7421e-05
1.68515e-05
-1.62344e-05
1.65825e-05
-1.96171e-05
1.9269e-05
-1.42588e-05
8.40249e-06
-1.38436e-06
7.24066e-06
-1.61164e-05
1.67468e-05
-6.30358e-07
9.42128e-07
-4.953e-07
9.9006e-06
-1.03474e-05
-2.03669e-07
1.44039e-06
2.12132e-05
-2.24499e-05
-3.00943e-06
4.42326e-06
1.80499e-05
-1.94637e-05
-5.48881e-06
6.30766e-06
1.16087e-05
-1.24275e-05
-7.03326e-06
7.75488e-06
7.59429e-06
-8.31591e-06
-8.50055e-06
9.26625e-06
5.91835e-06
-6.68405e-06
-1.00357e-05
1.07903e-05
5.45359e-06
-6.20817e-06
-1.15138e-05
1.21948e-05
5.32655e-06
-6.0075e-06
-1.28265e-05
1.3406e-05
5.06739e-06
-5.64687e-06
-1.39319e-05
1.44031e-05
4.48939e-06
-4.96055e-06
-1.48186e-05
1.51783e-05
3.56499e-06
-3.92469e-06
-1.54829e-05
1.57338e-05
2.33938e-06
-2.59025e-06
-1.5932e-05
1.60776e-05
8.51577e-07
-9.97197e-07
-1.61698e-05
1.62076e-05
-8.98833e-07
8.60979e-07
-1.61921e-05
1.61281e-05
-2.92128e-06
2.98531e-06
-1.60245e-05
1.58934e-05
-5.23096e-06
5.3621e-06
-1.57478e-05
1.56e-05
-7.85745e-06
8.00524e-06
-1.54609e-05
1.53392e-05
-1.07632e-05
1.08849e-05
-1.52453e-05
1.51805e-05
-1.38207e-05
1.38855e-05
-1.51033e-05
1.50555e-05
-1.66612e-05
1.6709e-05
-1.53003e-05
1.52968e-05
-1.89654e-05
1.89688e-05
-1.35377e-05
8.56272e-06
-1.27564e-05
1.77314e-05
-1.71042e-05
1.71095e-05
-5.22597e-09
5.07713e-07
-5.55118e-07
1.04951e-05
-1.04477e-05
2.34087e-07
7.56569e-07
2.35567e-05
-2.45473e-05
-2.29549e-06
3.86314e-06
2.10238e-05
-2.25915e-05
-5.09569e-06
6.03497e-06
1.33173e-05
-1.42566e-05
-6.85106e-06
7.6547e-06
9.07669e-06
-9.88032e-06
-8.4797e-06
9.31847e-06
7.48862e-06
-8.32739e-06
-1.015e-05
1.09538e-05
6.992e-06
-7.79572e-06
-1.17147e-05
1.24248e-05
6.70649e-06
-7.41664e-06
-1.30823e-05
1.36888e-05
6.23972e-06
-6.84615e-06
-1.42451e-05
1.47498e-05
5.4437e-06
-5.94839e-06
-1.52e-05
1.5593e-05
4.29227e-06
-4.68524e-06
-1.59268e-05
1.62e-05
2.84329e-06
-3.11644e-06
-1.64109e-05
1.6559e-05
1.14262e-06
-1.29069e-06
-1.66469e-05
1.66811e-05
-8.16141e-07
7.8192e-07
-1.66696e-05
1.66211e-05
-3.0333e-06
3.08183e-06
-1.65441e-05
1.64467e-05
-5.47455e-06
5.57196e-06
-1.63358e-05
1.62171e-05
-8.13918e-06
8.25788e-06
-1.6098e-05
1.59882e-05
-1.10001e-05
1.11099e-05
-1.58956e-05
1.58277e-05
-1.39475e-05
1.40154e-05
-1.57779e-05
1.56544e-05
-1.68381e-05
1.69616e-05
-1.53817e-05
1.48117e-05
-1.93264e-05
1.98964e-05
-1.32514e-05
9.55056e-06
-2.2198e-05
2.58989e-05
7.9624e-07
-1.42293e-06
6.26685e-07
-2.33929e-06
4.40236e-06
-2.06306e-06
-6.48539e-06
7.949e-06
-1.46361e-06
-8.56143e-06
8.44984e-06
1.1159e-07
-7.87617e-06
7.06437e-06
8.11802e-07
-6.14556e-06
5.16565e-06
9.79906e-07
-4.13005e-06
3.0278e-06
1.10225e-06
-1.84805e-06
5.87942e-07
1.2601e-06
7.54911e-07
-2.18303e-06
1.42812e-06
3.71561e-06
-5.37981e-06
1.6642e-06
7.2095e-06
-9.24664e-06
2.03714e-06
1.15452e-05
-1.41774e-05
2.63219e-06
1.7242e-05
-2.08667e-05
3.62472e-06
2.52253e-05
-3.05564e-05
5.33114e-06
3.72074e-05
-4.56685e-05
8.46107e-06
5.6631e-05
-7.10446e-05
1.44137e-05
8.94531e-05
-0.000108935
1.9482e-05
0.000120256
-0.000112248
-8.00866e-06
7.93317e-05
-3.01372e-05
-4.91945e-05
1.97058e-06
-2.33796e-06
3.6738e-07
-2.0351e-06
4.53638e-06
4.34897e-06
-6.85025e-06
-7.15836e-06
8.99083e-06
3.16503e-06
-4.9975e-06
-9.75884e-06
9.71119e-06
-9.65575e-08
1.44207e-07
-9.18916e-06
8.37423e-06
-1.51818e-06
2.33311e-06
-7.33325e-06
6.12463e-06
-2.1602e-06
3.36882e-06
-4.81166e-06
3.4353e-06
-2.51442e-06
3.89079e-06
-2.01555e-06
5.55937e-07
-2.79243e-06
4.25204e-06
9.61157e-07
-2.56069e-06
-3.09328e-06
4.69282e-06
4.26562e-06
-6.10611e-06
-3.57294e-06
5.41344e-06
8.12341e-06
-1.03761e-05
-4.37451e-06
6.62722e-06
1.2941e-05
-1.59179e-05
-5.72821e-06
8.70511e-06
1.94387e-05
-2.36749e-05
-8.0459e-06
1.22821e-05
2.88509e-05
-3.52604e-05
-1.20487e-05
1.84582e-05
4.32684e-05
-5.32917e-05
-1.90172e-05
2.90405e-05
6.5734e-05
-8.0957e-05
-3.0032e-05
4.5255e-05
9.91295e-05
-0.000118288
-3.55471e-05
5.47056e-05
0.000130184
-0.00012166
1.77504e-05
-2.62743e-05
8.58761e-05
-3.32585e-05
9.97065e-05
-0.000152324
2.3628e-06
-1.84966e-06
-5.13133e-07
-1.18663e-06
4.33368e-06
9.62999e-06
-1.2777e-05
-7.83478e-06
1.00594e-05
6.98917e-06
-9.21384e-06
-1.07084e-05
1.04115e-05
-2.74884e-07
5.7177e-07
-9.78014e-06
8.95976e-06
-3.15342e-06
3.97381e-06
-7.92423e-06
6.71479e-06
-4.579e-06
5.78844e-06
-5.40288e-06
4.029e-06
-5.25079e-06
6.62467e-06
-2.60817e-06
1.14139e-06
-5.70105e-06
7.16782e-06
3.84089e-07
-1.97502e-06
-6.28122e-06
7.87215e-06
3.65463e-06
-5.451e-06
-7.22864e-06
9.02502e-06
7.4021e-06
-9.55872e-06
-8.82882e-06
1.09854e-05
1.19854e-05
-1.47669e-05
-1.1578e-05
1.43594e-05
1.80158e-05
-2.18801e-05
-1.6318e-05
2.01823e-05
2.65559e-05
-3.23086e-05
-2.4511e-05
3.02638e-05
3.95014e-05
-4.86541e-05
-3.85876e-05
4.77403e-05
6.05247e-05
-7.63046e-05
-6.07635e-05
7.65434e-05
9.76137e-05
-0.000122879
-7.72772e-05
0.000102542
0.000137507
-0.000119495
3.66446e-05
-5.4657e-05
7.58291e-05
-3.14666e-05
0.000204221
-0.000248584
5.20347e-07
1.8783e-06
-2.39865e-06
7.14729e-07
3.88869e-06
1.63715e-05
-2.09749e-05
-9.21084e-06
1.17792e-05
1.17322e-05
-1.43005e-05
-1.19381e-05
1.11266e-05
-1.08833e-06
1.89977e-06
-1.02615e-05
9.36055e-06
-4.83712e-06
5.73803e-06
-8.24952e-06
6.96312e-06
-7.02283e-06
8.30923e-06
-5.59462e-06
4.18443e-06
-8.01706e-06
9.42725e-06
-2.74552e-06
1.27922e-06
-8.64114e-06
1.01074e-05
2.23916e-07
-1.77786e-06
-9.45027e-06
1.10042e-05
3.40132e-06
-5.12104e-06
-1.07883e-05
1.2508e-05
6.97033e-06
-8.99273e-06
-1.30819e-05
1.51043e-05
1.12425e-05
-1.37904e-05
-1.70345e-05
1.95824e-05
1.67298e-05
-2.01837e-05
-2.38581e-05
2.7312e-05
2.43172e-05
-2.93591e-05
-3.56911e-05
4.0733e-05
3.5634e-05
-4.36668e-05
-5.6409e-05
6.44418e-05
5.44501e-05
-6.997e-05
-9.23633e-05
0.000107883
9.23523e-05
-0.000115986
-0.000128522
0.000152156
0.000118703
-8.34815e-05
8.30479e-05
-0.000118269
4.67717e-05
-2.06162e-05
0.000282093
-0.000308248
-5.02812e-06
7.76111e-06
-2.73299e-06
9.00053e-07
8.43448e-06
2.79222e-05
-3.72567e-05
-1.77607e-05
1.93234e-05
1.62016e-05
-1.77643e-05
-1.55442e-05
1.2095e-05
-3.46073e-06
6.90994e-06
-1.06181e-05
9.81158e-06
-6.61544e-06
7.42199e-06
-8.64909e-06
7.21487e-06
-9.66563e-06
1.10998e-05
-5.74563e-06
4.29455e-06
-1.08565e-05
1.23076e-05
-2.85341e-06
1.41151e-06
-1.15616e-05
1.30035e-05
4.55911e-08
-1.53879e-06
-1.25292e-05
1.40224e-05
3.08082e-06
-4.69524e-06
-1.41776e-05
1.57921e-05
6.40776e-06
-8.25172e-06
-1.70418e-05
1.88858e-05
1.02682e-05
-1.251e-05
-2.19852e-05
2.4227e-05
1.50462e-05
-1.79653e-05
-3.05124e-05
3.34315e-05
2.1386e-05
-2.5473e-05
-4.53258e-05
4.94129e-05
3.04543e-05
-3.67189e-05
-7.16708e-05
7.79354e-05
4.5236e-05
-5.81054e-05
-0.000122493
0.000135362
7.55781e-05
-8.52497e-05
-0.000169361
0.000179033
6.98123e-05
-4.16382e-05
0.000153519
-0.000181693
2.74016e-05
-9.31839e-06
0.000330138
-0.000348222
-9.6428e-06
1.17498e-05
-2.10696e-06
-1.44777e-06
7.4116e-06
4.61787e-05
-5.21425e-05
-1.9851e-05
2.8548e-05
2.18135e-05
-3.05105e-05
-2.58922e-05
1.73692e-05
-1.34165e-05
2.19395e-05
-1.19302e-05
1.02077e-05
-8.35157e-06
1.00741e-05
-9.06267e-06
7.52269e-06
-1.26006e-05
1.41406e-05
-5.9224e-06
4.41834e-06
-1.37841e-05
1.52881e-05
-2.97838e-06
1.56665e-06
-1.44319e-05
1.58436e-05
-1.58933e-07
-1.25707e-06
-1.54743e-05
1.68903e-05
2.7032e-06
-4.19412e-06
-1.73468e-05
1.88377e-05
5.74677e-06
-7.38248e-06
-2.06287e-05
2.22644e-05
9.12725e-06
-1.10132e-05
-2.62961e-05
2.81821e-05
1.30809e-05
-1.53775e-05
-3.60478e-05
3.83444e-05
1.79618e-05
-2.09097e-05
-5.29476e-05
5.58955e-05
2.43057e-05
-2.82821e-05
-8.31038e-05
8.70802e-05
3.34095e-05
-4.0711e-05
-0.000145712
0.000153013
4.83723e-05
-4.87691e-05
-0.000184938
0.000185335
3.4344e-05
-3.10655e-05
0.000193498
-0.000196776
2.17138e-05
-3.12081e-06
0.000366514
-0.000385107
-1.39336e-05
1.46328e-05
-6.99195e-07
-1.88397e-07
2.89038e-06
5.59372e-05
-5.86392e-05
-9.03159e-06
1.85062e-05
4.17506e-05
-5.12252e-05
-2.72377e-05
2.46537e-05
-2.93768e-05
3.19608e-05
-1.69626e-05
1.17653e-05
-1.34188e-05
1.86162e-05
-9.46778e-06
7.73597e-06
-1.57298e-05
1.74616e-05
-6.04538e-06
4.50372e-06
-1.68165e-05
1.83581e-05
-3.08079e-06
1.71757e-06
-1.7234e-05
1.85972e-05
-3.78477e-07
-9.53762e-07
-1.82656e-05
1.95979e-05
2.29345e-06
-3.64827e-06
-2.02617e-05
2.16165e-05
5.02599e-06
-6.43478e-06
-2.37885e-05
2.51973e-05
7.88461e-06
-9.38656e-06
-2.98784e-05
3.13804e-05
1.09512e-05
-1.25827e-05
-4.03111e-05
4.19426e-05
1.42752e-05
-1.60041e-05
-5.82361e-05
5.99651e-05
1.7702e-05
-1.92095e-05
-8.98179e-05
9.13253e-05
2.04272e-05
-2.12743e-05
-0.000157057
0.000157904
2.01798e-05
-1.5834e-05
-0.000182219
0.000177873
1.90549e-05
-2.1599e-05
0.000195867
-0.000193323
1.48808e-05
-3.05277e-06
0.000404039
-0.000415867
7.77983e-06
-1.44696e-05
6.68979e-06
-1.32e-06
-4.3646e-07
6.04654e-05
-5.87089e-05
2.65969e-06
3.66942e-06
5.90632e-05
-6.53923e-05
-1.75655e-05
2.30807e-05
-2.94925e-05
2.39773e-05
-2.01381e-05
1.42522e-05
-2.4626e-05
3.05119e-05
-1.01406e-05
7.76224e-06
-1.94996e-05
2.1878e-05
-6.01056e-06
4.50287e-06
-1.98944e-05
2.14021e-05
-3.13676e-06
1.84623e-06
-1.99282e-05
2.12187e-05
-5.90282e-07
-6.46307e-07
-2.08853e-05
2.21219e-05
1.87296e-06
-3.08634e-06
-2.29009e-05
2.41143e-05
4.2833e-06
-5.45813e-06
-2.64891e-05
2.76639e-05
6.60458e-06
-7.71534e-06
-3.26865e-05
3.37973e-05
8.7735e-06
-9.74354e-06
-4.32402e-05
4.42102e-05
1.05615e-05
-1.11138e-05
-6.10934e-05
6.16457e-05
1.12058e-05
-1.04554e-05
-9.16597e-05
9.09094e-05
8.1052e-06
-3.15233e-06
-0.000155713
0.00015076
-4.18658e-06
1.00097e-05
-0.000173559
0.000167735
-1.21148e-05
6.88998e-06
0.000189094
-0.000183869
4.07399e-06
-1.85934e-06
0.00042207
-0.000424285
-1.49055e-05
9.20987e-06
5.69559e-06
-3.25786e-06
4.51501e-06
1.04071e-05
-1.16642e-05
-6.70887e-06
8.42397e-06
2.54586e-05
-2.71737e-05
-9.32065e-06
1.03357e-05
2.39179e-05
-2.4933e-05
-1.16401e-05
1.30686e-05
1.51619e-05
-1.65904e-05
-1.46227e-05
1.63169e-05
1.07036e-05
-1.23979e-05
-1.81085e-05
1.99266e-05
9.18369e-06
-1.10018e-05
-2.17062e-05
2.34018e-05
8.60329e-06
-1.02989e-05
-2.4989e-05
2.64625e-05
8.12439e-06
-9.59785e-06
-2.78353e-05
2.91283e-05
7.45757e-06
-8.75056e-06
-3.03488e-05
3.14866e-05
6.47637e-06
-7.61411e-06
-3.25302e-05
3.34797e-05
5.1199e-06
-6.06939e-06
-3.43462e-05
3.51418e-05
3.444e-06
-4.23964e-06
-3.5866e-05
3.64936e-05
1.48291e-06
-2.11053e-06
-3.69819e-05
3.72777e-05
-7.47262e-07
4.51477e-07
-3.73512e-05
3.72364e-05
-3.15443e-06
3.26931e-06
-3.69976e-05
3.67137e-05
-5.67516e-06
5.95906e-06
-3.64349e-05
3.61718e-05
-8.36459e-06
8.62771e-06
-3.59248e-05
3.57036e-05
-1.12114e-05
1.14326e-05
-3.55236e-05
3.53948e-05
-1.4084e-05
1.42129e-05
-3.53255e-05
3.52863e-05
-1.70499e-05
1.70891e-05
-3.51576e-05
3.47785e-05
-2.04846e-05
2.08637e-05
-3.44086e-05
3.5431e-05
-2.92748e-05
2.82524e-05
-9.52875e-07
-8.83857e-06
9.79145e-06
-1.71783e-05
2.64069e-05
1.60588e-05
-2.52874e-05
-3.30836e-05
3.05105e-05
2.80351e-05
-2.54619e-05
-2.29084e-05
1.79352e-05
2.25482e-05
-1.7575e-05
-1.60559e-05
1.61216e-05
1.71482e-05
-1.72139e-05
-1.71982e-05
1.88309e-05
1.39953e-05
-1.56279e-05
-2.07149e-05
2.26704e-05
1.28437e-05
-1.47993e-05
-2.4622e-05
2.65436e-05
1.20283e-05
-1.395e-05
-2.84274e-05
3.02778e-05
1.113e-05
-1.29805e-05
-3.20969e-05
3.38286e-05
1.01325e-05
-1.18643e-05
-3.53468e-05
3.65161e-05
8.69018e-06
-9.85951e-06
-3.72785e-05
3.76626e-05
6.75454e-06
-7.13867e-06
-3.77319e-05
3.75876e-05
4.75208e-06
-4.60772e-06
-3.73685e-05
3.71833e-05
2.67471e-06
-2.48947e-06
-3.70868e-05
3.69636e-05
1.86513e-07
-6.33141e-08
-3.72377e-05
3.77019e-05
-2.96913e-06
2.50497e-06
-3.83018e-05
3.89723e-05
-6.09789e-06
5.42734e-06
-3.94812e-05
3.9628e-05
-8.99067e-06
8.84378e-06
-3.94215e-05
3.90045e-05
-1.17679e-05
1.21848e-05
-3.85535e-05
3.82334e-05
-1.43269e-05
1.46469e-05
-3.81802e-05
3.84909e-05
-1.68646e-05
1.6554e-05
-3.92863e-05
4.07161e-05
-1.98828e-05
1.84531e-05
-4.307e-05
4.66338e-05
-2.37327e-05
2.01689e-05
2.07832e-05
-3.53609e-05
1.45777e-05
-2.48049e-05
3.0924e-05
3.65877e-05
-4.27068e-05
-1.58983e-05
2.17313e-07
1.4444e-05
1.23702e-06
4.72044e-06
8.0295e-07
1.50761e-05
-2.05995e-05
1.47312e-07
-1.95996e-06
1.72529e-05
-1.54403e-05
3.56255e-06
-5.41061e-06
1.69047e-05
-1.50567e-05
7.64369e-06
-9.72524e-06
1.61506e-05
-1.40691e-05
1.08722e-05
-1.1426e-05
1.53375e-05
-1.47837e-05
1.35472e-05
-1.6274e-05
1.41898e-05
-1.1463e-05
1.70485e-05
-1.39317e-05
1.3815e-05
-1.69318e-05
7.16818e-06
1.39324e-06
1.26286e-05
-2.119e-05
-9.81378e-06
1.72607e-05
9.3028e-06
-1.67497e-05
-2.36608e-05
2.9107e-05
5.53715e-06
-1.09833e-05
-3.36918e-05
3.76911e-05
2.23804e-06
-6.23735e-06
-4.06435e-05
4.15927e-05
-5.73633e-07
-3.7555e-07
-4.07071e-05
3.83363e-05
-3.33664e-06
5.70745e-06
-3.61025e-05
3.54e-05
-4.97241e-06
5.67499e-06
-3.56876e-05
3.64879e-05
-7.79724e-06
6.9969e-06
-3.76174e-05
3.88094e-05
-1.18177e-05
1.06257e-05
-3.96924e-05
4.02252e-05
-1.4859e-05
1.43261e-05
-4.05699e-05
4.08913e-05
-1.64034e-05
1.60819e-05
-4.13649e-05
4.21679e-05
-1.72647e-05
1.64616e-05
-4.34456e-05
4.52092e-05
-1.7517e-05
1.57534e-05
2.77115e-05
-1.85163e-05
-9.19523e-06
8.66924e-06
-1.62247e-05
3.45559e-05
-2.70004e-05
1.30469e-05
-1.77764e-06
-1.13607e-06
-1.01332e-05
-3.16515e-06
4.21569e-07
2.02354e-05
-1.74919e-05
-2.79524e-07
5.45562e-07
1.50525e-05
-1.53186e-05
-6.72142e-07
7.82752e-07
1.40714e-05
-1.4182e-05
-9.44268e-07
1.07907e-06
1.16487e-05
-1.17835e-05
-9.96703e-07
5.96948e-07
6.6241e-06
-6.22434e-06
1.68183e-06
-8.32901e-06
6.61865e-07
5.98532e-06
1.74354e-05
-2.26379e-05
1.63915e-05
-1.1189e-05
2.10104e-05
-1.61927e-05
3.31459e-05
-3.79636e-05
1.06504e-05
-5.07948e-06
2.15216e-05
-2.70925e-05
-7.94701e-07
6.87631e-06
1.27174e-05
-1.8799e-05
-1.25961e-05
1.46515e-05
1.45121e-05
-1.65675e-05
-1.11554e-05
1.06146e-05
1.22476e-05
-1.17068e-05
-1.1406e-05
1.40442e-05
-3.92279e-06
1.28455e-06
-2.89947e-05
4.02095e-05
-4.22988e-06
-6.98499e-06
-4.31413e-05
4.26845e-05
-1.02066e-05
1.06634e-05
-4.17746e-05
3.99944e-05
-1.20518e-05
1.38321e-05
-3.78681e-05
3.64319e-05
-1.35147e-05
1.49509e-05
-3.59119e-05
3.62272e-05
-1.45949e-05
1.42796e-05
-3.7436e-05
3.91655e-05
-1.50413e-05
1.33119e-05
-4.09463e-05
4.24399e-05
-1.45063e-05
1.30127e-05
1.36063e-05
-9.57196e-06
-4.03433e-06
5.51445e-06
-6.26848e-06
2.72937e-05
-2.65397e-05
5.8564e-06
-3.49622e-06
1.51513e-05
-1.75115e-05
3.04723e-06
-2.72037e-06
1.64324e-05
-1.67593e-05
2.36635e-06
-1.91454e-06
1.56852e-05
-1.6137e-05
1.49425e-06
-1.12242e-06
1.44899e-05
-1.48617e-05
7.33291e-07
-2.28775e-07
1.22788e-05
-1.27833e-05
-6.01879e-07
2.15252e-06
7.92325e-06
-9.47389e-06
-5.56902e-06
1.17034e-05
-3.64193e-06
-2.49249e-06
-1.54483e-05
1.19586e-05
3.13503e-06
3.54677e-07
-4.77111e-06
-2.06853e-06
3.56721e-05
-2.88324e-05
5.2465e-06
-5.7797e-06
2.9681e-05
-2.91478e-05
4.66551e-06
-2.26322e-06
2.37307e-05
-2.6133e-05
-7.86336e-07
3.23937e-06
2.00642e-05
-2.25172e-05
-4.7149e-06
7.47301e-06
1.55883e-05
-1.83465e-05
-1.30996e-05
1.97568e-05
7.42822e-06
-1.40854e-05
-2.07983e-05
2.20894e-05
9.35297e-06
-1.0644e-05
-2.80047e-05
3.56295e-05
-1.91919e-05
1.15671e-05
-3.56095e-05
3.63599e-05
-9.70558e-06
8.95524e-06
-3.46546e-05
4.13951e-05
-1.42063e-05
7.46575e-06
-4.38663e-05
4.50318e-05
-1.60182e-05
1.48527e-05
-4.50373e-05
4.33278e-05
-1.40916e-05
1.58011e-05
-4.12946e-05
3.95252e-05
-1.22058e-05
1.39753e-05
5.4431e-06
-1.47193e-06
-3.97117e-06
5.42786e-06
-4.85419e-06
2.65625e-05
-2.71361e-05
3.95544e-06
-2.95743e-06
1.88585e-05
-1.98565e-05
2.18627e-06
-1.43409e-06
1.74645e-05
-1.82166e-05
7.21433e-07
-1.43067e-08
1.67419e-05
-1.7449e-05
-6.99607e-07
1.46149e-06
1.54616e-05
-1.62235e-05
-2.315e-06
3.3502e-06
1.35551e-05
-1.45903e-05
-4.64097e-06
6.33554e-06
1.08814e-05
-1.25759e-05
-8.55078e-06
1.19855e-05
7.34687e-06
-1.07816e-05
-1.81045e-05
2.30553e-05
2.88066e-06
-7.83149e-06
-2.25288e-05
1.92653e-05
2.28626e-05
-1.95992e-05
-1.58434e-05
1.29306e-05
2.6644e-05
-2.37312e-05
-1.09577e-05
9.92235e-06
2.6443e-05
-2.54076e-05
-9.72379e-06
1.00333e-05
2.35949e-05
-2.39044e-05
-1.05705e-05
1.13404e-05
1.96064e-05
-2.03763e-05
-1.2315e-05
1.33575e-05
1.60611e-05
-1.71036e-05
-1.41227e-05
1.52282e-05
1.22376e-05
-1.3343e-05
-1.77301e-05
2.3213e-05
6.03875e-07
-6.08678e-06
-2.68362e-05
3.17041e-05
-4.14081e-06
-7.27144e-07
-3.91762e-05
4.2976e-05
-8.86318e-06
5.06338e-06
-4.72147e-05
4.84651e-05
-1.67658e-05
1.55155e-05
-4.19472e-05
3.06171e-05
-1.26625e-05
2.39927e-05
-4.02369e-05
4.46105e-05
-1.57918e-05
1.14182e-05
-2.30726e-06
5.81739e-06
-3.51012e-06
4.69895e-06
-3.92692e-06
2.78348e-05
-2.86069e-05
2.93497e-06
-2.0623e-06
2.07344e-05
-2.1607e-05
1.26089e-06
-4.7415e-07
1.89914e-05
-1.97781e-05
-2.94654e-07
1.07334e-06
1.81973e-05
-1.89759e-05
-1.87784e-06
2.74285e-06
1.70538e-05
-1.79188e-05
-3.70081e-06
4.78609e-06
1.56799e-05
-1.67652e-05
-6.05284e-06
7.53193e-06
1.42175e-05
-1.56966e-05
-9.14153e-06
1.09851e-05
1.32636e-05
-1.51072e-05
-1.37015e-05
1.67331e-05
1.21413e-05
-1.51729e-05
-1.85174e-05
1.87732e-05
1.87205e-05
-1.89764e-05
-1.83972e-05
1.78582e-05
2.19432e-05
-2.14042e-05
-1.70849e-05
1.61387e-05
2.39801e-05
-2.30339e-05
-1.53027e-05
1.48629e-05
2.36358e-05
-2.3196e-05
-1.49152e-05
1.54355e-05
2.1023e-05
-2.15433e-05
-1.63382e-05
1.75486e-05
1.81536e-05
-1.9364e-05
-1.90848e-05
2.11219e-05
1.49695e-05
-1.70067e-05
-2.39489e-05
2.78899e-05
1.03206e-05
-1.42617e-05
-3.2956e-05
3.93981e-05
5.94027e-06
-1.23824e-05
-4.78564e-05
5.73126e-05
1.87298e-06
-1.13292e-05
-6.76296e-05
7.81889e-05
-7.48872e-06
-3.07063e-06
-8.72749e-05
9.47923e-05
-2.65574e-05
1.90399e-05
-8.90327e-05
7.5137e-05
-2.09071e-05
3.48027e-05
-8.82894e-06
1.11091e-05
-2.28017e-06
3.68863e-06
-2.90525e-06
2.94257e-05
-3.02091e-05
1.87283e-06
-9.97693e-07
2.24953e-05
-2.33704e-05
2.22942e-07
5.34282e-07
2.05599e-05
-2.13171e-05
-1.29049e-06
2.0654e-06
1.97635e-05
-2.05384e-05
-2.87331e-06
3.73188e-06
1.8792e-05
-1.96505e-05
-4.65943e-06
5.66877e-06
1.78219e-05
-1.88313e-05
-6.77021e-06
7.97181e-06
1.70291e-05
-1.82307e-05
-9.26763e-06
1.06357e-05
1.66779e-05
-1.80459e-05
-1.20845e-05
1.35038e-05
1.71593e-05
-1.85786e-05
-1.46087e-05
1.52716e-05
1.95657e-05
-2.02286e-05
-1.5661e-05
1.59519e-05
2.14985e-05
-2.17894e-05
-1.61329e-05
1.6172e-05
2.27074e-05
-2.27464e-05
-1.61499e-05
1.62071e-05
2.29623e-05
-2.30195e-05
-1.64802e-05
1.70709e-05
2.20518e-05
-2.26424e-05
-1.80333e-05
1.94057e-05
2.07043e-05
-2.20767e-05
-2.12426e-05
2.36478e-05
1.93559e-05
-2.17611e-05
-2.67662e-05
3.07268e-05
1.82011e-05
-2.21617e-05
-3.57044e-05
4.22231e-05
1.88448e-05
-2.53635e-05
-5.08742e-05
6.12096e-05
2.16929e-05
-3.20283e-05
-7.18796e-05
8.2258e-05
1.48184e-05
-2.51969e-05
-9.21635e-05
0.000102495
-7.1796e-06
-3.15179e-06
-0.000111911
0.000116974
-3.74398e-05
3.23768e-05
-1.23925e-05
1.25801e-05
-1.87531e-07
1.75274e-06
-1.25334e-06
3.08832e-05
-3.13826e-05
5.01014e-07
1.94235e-07
2.4175e-05
-2.48702e-05
-8.37932e-07
1.49949e-06
2.20366e-05
-2.26981e-05
-2.18524e-06
2.89936e-06
2.12873e-05
-2.20014e-05
-3.64915e-06
4.44183e-06
2.048e-05
-2.12727e-05
-5.28295e-06
6.17557e-06
1.97833e-05
-2.06759e-05
-7.11889e-06
8.10709e-06
1.93175e-05
-2.03057e-05
-9.1288e-06
1.01654e-05
1.923e-05
-2.02667e-05
-1.11887e-05
1.21513e-05
1.97118e-05
-2.06744e-05
-1.29826e-05
1.36345e-05
2.08948e-05
-2.15467e-05
-1.41269e-05
1.45175e-05
2.21375e-05
-2.2528e-05
-1.48481e-05
1.51498e-05
2.29556e-05
-2.32573e-05
-1.54708e-05
1.58688e-05
2.32993e-05
-2.36973e-05
-1.63928e-05
1.7084e-05
2.33186e-05
-2.40098e-05
-1.79833e-05
1.91373e-05
2.33804e-05
-2.45344e-05
-2.06027e-05
2.24463e-05
2.39681e-05
-2.58117e-05
-2.47765e-05
2.7736e-05
2.57982e-05
-2.87576e-05
-3.14159e-05
3.59779e-05
3.12819e-05
-3.58439e-05
-4.19625e-05
4.86478e-05
4.11686e-05
-4.78539e-05
-5.39521e-05
5.77187e-05
3.28108e-05
-3.65774e-05
-6.19261e-05
6.74316e-05
9.56282e-06
-1.50683e-05
-7.36474e-05
8.01182e-05
-2.49696e-05
1.84987e-05
-1.1902e-05
1.09432e-05
9.58799e-07
-4.05556e-07
5.73431e-07
3.16251e-05
-3.1793e-05
-8.88628e-07
1.32232e-06
2.54425e-05
-2.58762e-05
-1.81106e-06
2.35675e-06
2.32967e-05
-2.38424e-05
-2.95143e-06
3.58755e-06
2.26763e-05
-2.33125e-05
-4.26246e-06
4.97512e-06
2.20251e-05
-2.27378e-05
-5.72408e-06
6.50631e-06
2.1511e-05
-2.22932e-05
-7.31687e-06
8.14816e-06
2.12092e-05
-2.20405e-05
-8.98918e-06
9.82486e-06
2.11901e-05
-2.20257e-05
-1.06363e-05
1.14017e-05
2.15214e-05
-2.22868e-05
-1.20988e-05
1.27112e-05
2.21809e-05
-2.27932e-05
-1.32383e-05
1.36959e-05
2.29586e-05
-2.34162e-05
-1.41069e-05
1.44959e-05
2.36163e-05
-2.40053e-05
-1.48887e-05
1.53107e-05
2.41314e-05
-2.45534e-05
-1.57832e-05
1.63234e-05
2.46457e-05
-2.51859e-05
-1.69459e-05
1.76616e-05
2.54836e-05
-2.61993e-05
-1.84759e-05
1.93841e-05
2.72029e-05
-2.81111e-05
-2.0364e-05
2.14103e-05
3.07949e-05
-3.18412e-05
-2.24715e-05
2.31292e-05
3.84684e-05
-3.91261e-05
-2.32063e-05
2.37059e-05
5.13584e-05
-5.1858e-05
-2.32038e-05
2.08719e-05
3.66785e-05
-3.43466e-05
-1.89613e-05
1.86834e-05
1.84508e-05
-1.81729e-05
-1.92813e-05
2.10799e-05
-1.34743e-05
1.16757e-05
-9.92985e-06
8.92924e-06
1.00061e-06
-1.50373e-06
1.66003e-06
3.19367e-05
-3.2093e-05
-1.83556e-06
2.13363e-06
2.62187e-05
-2.65168e-05
-2.53972e-06
3.01873e-06
2.43485e-05
-2.48275e-05
-3.54989e-06
4.12374e-06
2.39142e-05
-2.44881e-05
-4.73442e-06
5.37781e-06
2.34135e-05
-2.40569e-05
-6.04907e-06
6.74318e-06
2.30283e-05
-2.37224e-05
-7.45392e-06
8.17398e-06
2.2811e-05
-2.35311e-05
-8.89462e-06
9.60571e-06
2.2792e-05
-2.35031e-05
-1.02958e-05
1.09532e-05
2.29915e-05
-2.36489e-05
-1.15674e-05
1.21312e-05
2.33813e-05
-2.39451e-05
-1.26428e-05
1.31055e-05
2.38831e-05
-2.43459e-05
-1.35264e-05
1.39138e-05
2.44011e-05
-2.47884e-05
-1.42764e-05
1.46224e-05
2.49412e-05
-2.52872e-05
-1.49569e-05
1.52796e-05
2.5616e-05
-2.59387e-05
-1.55828e-05
1.58478e-05
2.66791e-05
-2.69441e-05
-1.60406e-05
1.61054e-05
2.85622e-05
-2.8627e-05
-1.59521e-05
1.54332e-05
3.19957e-05
-3.14769e-05
-1.4364e-05
1.23428e-05
3.8182e-05
-3.61608e-05
-8.47798e-06
3.55118e-06
4.94282e-05
-4.45014e-05
-1.1152e-06
-1.14537e-06
3.11167e-05
-2.88561e-05
6.65208e-06
-1.35361e-05
1.37898e-05
-6.90581e-06
1.94791e-05
-2.34258e-05
-1.26481e-05
1.65948e-05
-7.9478e-06
7.00946e-06
9.38345e-07
-1.86605e-06
2.13332e-06
3.22899e-05
-3.25572e-05
-2.31483e-06
2.61323e-06
2.68041e-05
-2.71025e-05
-3.01153e-06
3.47274e-06
2.52922e-05
-2.57534e-05
-3.97713e-06
4.5167e-06
2.50413e-05
-2.55809e-05
-5.08629e-06
5.68147e-06
2.46733e-05
-2.52685e-05
-6.29739e-06
6.92869e-06
2.43819e-05
-2.50132e-05
-7.56988e-06
8.21471e-06
2.42096e-05
-2.48544e-05
-8.85659e-06
9.48835e-06
2.417e-05
-2.48018e-05
-1.01025e-05
1.06917e-05
2.42684e-05
-2.48576e-05
-1.12495e-05
1.17703e-05
2.44861e-05
-2.50069e-05
-1.2251e-05
1.26899e-05
2.47975e-05
-2.52364e-05
-1.30868e-05
1.34417e-05
2.51602e-05
-2.5515e-05
-1.37538e-05
1.40205e-05
2.55912e-05
-2.58579e-05
-1.42354e-05
1.4387e-05
2.61665e-05
-2.63181e-05
-1.44561e-05
1.4413e-05