/*--------------------------------*- C++ -*----------------------------------*\
| =========                 |                                                 |
| \\      /  F ield         | OpenFOAM: The Open Source CFD Toolbox           |
|  \\    /   O peration     | Version:  v1912                                 |
|   \\  /    A nd           | Website:  www.openfoam.com                      |
|    \\/     M anipulation  |                                                 |
\*---------------------------------------------------------------------------*/
FoamFile
{
    version     2.0;
    format      ascii;
    class       volVectorField;
    location    "0.45";
    object      U;
}
// * * * * * * * * * * * * * * * * * * * * * * * * * * * * * * * * * * * * * //

dimensions      [0 1 -1 0 0 0 0];


internalField   nonuniform List<vector> 
9072
(
(-0.027341 0.0220045 0)
(-0.0386594 -0.00332461 0)
(0.029134 -0.010173 0)
(0.11938 -0.00965275 0)
(0.190028 -0.00615092 0)
(0.230923 -0.00307735 0)
(0.251318 -0.00142257 0)
(0.262964 -0.000969325 0)
(0.273372 -0.00110189 0)
(0.285201 -0.00129738 0)
(0.297894 -0.0012891 0)
(0.309488 -0.00100386 0)
(0.317742 -0.00044692 0)
(0.320328 0.000613047 0)
(0.311326 0.00317442 0)
(0.28181 0.00775175 0)
(0.217121 0.0152185 0)
(0.096028 0.0227979 0)
(-0.0570318 0.00458491 0)
(-0.151315 0.00492864 0)
(-0.031171 -0.065777 0)
(-0.174903 0.060688 0)
(-0.249517 -0.0235069 0)
(-0.0254244 0.0532167 0)
(-0.037672 -0.018939 0)
(0.0333191 -0.0526517 0)
(0.122958 -0.0495503 0)
(0.191422 -0.0323819 0)
(0.231804 -0.0175661 0)
(0.253872 -0.00947476 0)
(0.268237 -0.00687381 0)
(0.281299 -0.00707734 0)
(0.295323 -0.00781242 0)
(0.30984 -0.00777921 0)
(0.323117 -0.00651974 0)
(0.333177 -0.00402442 0)
(0.338234 -0.000380617 0)
(0.336793 0.00454086 0)
(0.328557 0.0124625 0)
(0.317351 0.0286477 0)
(0.30954 0.0629162 0)
(0.252582 0.0975052 0)
(0.0507059 0.0565796 0)
(-0.12346 -0.0385378 0)
(-0.340706 0.183285 0)
(-0.254637 -0.172114 0)
(-0.024147 0.0827607 0)
(-0.0347106 -0.0358574 0)
(0.0382593 -0.0947096 0)
(0.123213 -0.0868826 0)
(0.184834 -0.056275 0)
(0.221383 -0.0311207 0)
(0.243545 -0.0178842 0)
(0.260504 -0.0137853 0)
(0.276919 -0.0141417 0)
(0.293882 -0.0151902 0)
(0.31046 -0.0148307 0)
(0.324973 -0.012363 0)
(0.335753 -0.00783781 0)
(0.341402 -0.0014141 0)
(0.340751 0.0071367 0)
(0.332872 0.0189875 0)
(0.317644 0.0368104 0)
(0.299417 0.0649052 0)
(0.304581 0.111958 0)
(0.29326 0.13774 0)
(0.0650839 0.0756787 0)
(-0.0984837 0.220795 0)
(-0.0769549 -0.218482 0)
(-0.0232486 0.110859 0)
(-0.0308666 -0.0544458 0)
(0.0418063 -0.135245 0)
(0.119305 -0.120461 0)
(0.173119 -0.0773196 0)
(0.206396 -0.0440096 0)
(0.230064 -0.0273878 0)
(0.251202 -0.0225628 0)
(0.27225 -0.0230264 0)
(0.292953 -0.0239315 0)
(0.311994 -0.0227324 0)
(0.327928 -0.0186844 0)
(0.339551 -0.0119618 0)
(0.345945 -0.0028513 0)
(0.346405 0.00878072 0)
(0.34057 0.0238443 0)
(0.329121 0.0442287 0)
(0.31478 0.0720654 0)
(0.301889 0.105908 0)
(0.314068 0.148528 0)
(0.277211 0.185855 0)
(0.171365 0.202194 0)
(0.120841 -0.173645 0)
(-0.0218301 0.136962 0)
(-0.0266574 -0.0742161 0)
(0.0442096 -0.172961 0)
(0.112207 -0.149639 0)
(0.158593 -0.0959182 0)
(0.190325 -0.0569673 0)
(0.216993 -0.0387011 0)
(0.243201 -0.0337231 0)
(0.269158 -0.0340036 0)
(0.293482 -0.0341284 0)
(0.314761 -0.0314975 0)
(0.331965 -0.0254919 0)
(0.344403 -0.0164355 0)
(0.351606 -0.00471072 0)
(0.353232 0.00972736 0)
(0.34926 0.0274922 0)
(0.340613 0.049761 0)
(0.329794 0.077725 0)
(0.320291 0.110563 0)
(0.312337 0.144608 0)
(0.332456 0.202864 0)
(0.342714 0.212573 0)
(0.23993 -0.0748751 0)
(-0.0193705 0.159926 0)
(-0.0214405 -0.0945084 0)
(0.0392044 -0.206776 0)
(0.102696 -0.174911 0)
(0.145051 -0.112809 0)
(0.176721 -0.0707786 0)
(0.207239 -0.0522302 0)
(0.238408 -0.0472893 0)
(0.268535 -0.0468678 0)
(0.295636 -0.0455418 0)
(0.318582 -0.0409778 0)
(0.336847 -0.0327449 0)
(0.350155 -0.0212886 0)
(0.358332 -0.00703687 0)
(0.361202 0.00999313 0)
(0.358881 0.0301297 0)
(0.352412 0.0539698 0)
(0.343993 0.082102 0)
(0.336383 0.114032 0)
(0.330823 0.147545 0)
(0.330431 0.183961 0)
(0.379518 0.210112 0)
(0.285657 0.047113 0)
(-0.0147836 0.177515 0)
(-0.0168238 -0.109964 0)
(0.0154751 -0.235765 0)
(0.0865753 -0.201969 0)
(0.135449 -0.129511 0)
(0.168709 -0.0857392 0)
(0.20272 -0.0678788 0)
(0.237836 -0.0628293 0)
(0.270884 -0.0610974 0)
(0.299738 -0.0577752 0)
(0.32374 -0.0509595 0)
(0.342722 -0.0403712 0)
(0.35666 -0.0265625 0)
(0.365733 -0.00994043 0)
(0.369974 0.00953829 0)
(0.369314 0.0319227 0)
(0.364613 0.0572037 0)
(0.357933 0.0856246 0)
(0.351519 0.116813 0)
(0.34716 0.149509 0)
(0.343056 0.179722 0)
(0.350686 0.203163 0)
(0.277308 0.164548 0)
(-0.00563147 0.185821 0)
(-0.0123818 -0.113493 0)
(0.00257616 -0.259964 0)
(0.0712168 -0.23525 0)
(0.128113 -0.148579 0)
(0.165499 -0.102077 0)
(0.203129 -0.0851649 0)
(0.241086 -0.0796542 0)
(0.275851 -0.0760741 0)
(0.305888 -0.0704642 0)
(0.33126 -0.0613412 0)
(0.35183 -0.0483235 0)
(0.367116 -0.0320826 0)
(0.376772 -0.0131292 0)
(0.380802 0.00858584 0)
(0.380328 0.032968 0)
(0.376843 0.0596349 0)
(0.371736 0.0885252 0)
(0.366256 0.11928 0)
(0.361945 0.150805 0)
(0.359357 0.182361 0)
(0.345775 0.210944 0)
(0.280638 0.25988 0)
(0.00314929 -0.0112276 0)
(0.0766927 -0.00959686 0)
(0.16611 -0.00614793 0)
(0.197133 0.000922822 0)
(0.171856 0.0038767 0)
(0.129567 0.00415365 0)
(0.081832 0.00461265 0)
(0.0279208 0.00555291 0)
(-0.033635 0.0064593 0)
(-0.103834 0.00762092 0)
(-0.187605 0.00939903 0)
(-0.292899 0.0121169 0)
(-0.433352 0.016596 0)
(-0.633356 0.0243357 0)
(-0.93902 0.0391856 0)
(-1.44327 0.070766 0)
(-2.3138 0.0992427 0)
(-2.71614 -0.0355249 0)
(-1.23129 -0.238222 0)
(-0.000496634 -0.0211805 0)
(0.0736064 -0.0539238 0)
(0.186545 -0.0392294 0)
(0.225487 0.00103265 0)
(0.202526 0.0185711 0)
(0.154559 0.0268128 0)
(0.0941478 0.0311007 0)
(0.0293078 0.0342025 0)
(-0.0402447 0.0378115 0)
(-0.118268 0.0436413 0)
(-0.21057 0.0534244 0)
(-0.327935 0.07012 0)
(-0.489066 0.0987814 0)
(-0.726011 0.148263 0)
(-1.09319 0.233369 0)
(-1.66129 0.363984 0)
(-2.5363 0.433404 0)
(-2.96073 -0.203802 0)
(-1.33463 -1.21023 0)
(-0.0112943 -0.0212213 0)
(0.0575724 -0.107851 0)
(0.208767 -0.0777461 0)
(0.244691 0.00379659 0)
(0.215892 0.0345703 0)
(0.16804 0.0502885 0)
(0.107723 0.0576102 0)
(0.0427472 0.0624508 0)
(-0.0269299 0.0687055 0)
(-0.103803 0.0789129 0)
(-0.19303 0.0962208 0)
(-0.303979 0.126006 0)
(-0.452502 0.177349 0)
(-0.666176 0.266189 0)
(-0.996091 0.419415 0)
(-1.53156 0.665367 0)
(-2.57628 0.869376 0)
(-3.10074 -0.406088 0)
(-1.07291 -2.22047 0)
(-0.0347336 0.004774 0)
(0.0195196 -0.176955 0)
(0.248391 -0.125984 0)
(0.267548 0.0139389 0)
(0.225757 0.051332 0)
(0.17448 0.0742916 0)
(0.111589 0.0846433 0)
(0.0458211 0.0910364 0)
(-0.0228663 0.0993403 0)
(-0.0971485 0.113146 0)
(-0.181664 0.136915 0)
(-0.284411 0.177932 0)
(-0.418573 0.24868 0)
(-0.606992 0.371493 0)
(-0.894602 0.587553 0)
(-1.3702 0.971974 0)
(-2.49903 1.36832 0)
(-2.38277 -0.93025 0)
(-0.618264 -2.88306 0)
(-0.0748871 0.0621591 0)
(0.0707069 -0.311002 0)
(0.460107 -0.155954 0)
(0.308495 0.0455209 0)
(0.234711 0.0682368 0)
(0.18177 0.10062 0)
(0.114275 0.112403 0)
(0.048478 0.119291 0)
(-0.0181089 0.128961 0)
(-0.0886631 0.145563 0)
(-0.166857 0.174536 0)
(-0.258811 0.224588 0)
(-0.374302 0.310813 0)
(-0.529667 0.460648 0)
(-0.757003 0.727781 0)
(-1.11828 1.25428 0)
(-2.01662 1.68763 0)
(-1.12273 -1.79115 0)
(-0.434116 -3.31201 0)
(-0.112993 0.10393 0)
(0.0851641 -0.48522 0)
(0.601689 -0.246735 0)
(0.500557 0.171359 0)
(0.240442 0.0864954 0)
(0.190797 0.12972 0)
(0.117255 0.141077 0)
(0.0515743 0.147026 0)
(-0.0125367 0.157201 0)
(-0.0787004 0.175757 0)
(-0.149508 0.208389 0)
(-0.228922 0.264783 0)
(-0.322775 0.361635 0)
(-0.439536 0.52933 0)
(-0.592746 0.828331 0)
(-0.793745 1.45621 0)
(-1.26612 1.8159 0)
(-0.784974 -1.88017 0)
(-0.406863 -3.63291 0)
(0.0380462 0.153839 0)
(0.0519354 -0.559548 0)
(0.257656 -0.475768 0)
(0.675296 0.313174 0)
(0.296401 0.151746 0)
(0.196699 0.16066 0)
(0.119219 0.170742 0)
(0.0543768 0.174019 0)
(-0.00667203 0.183911 0)
(-0.0678856 0.203418 0)
(-0.130614 0.237997 0)
(-0.196446 0.297748 0)
(-0.26715 0.399867 0)
(-0.342919 0.57489 0)
(-0.417021 0.881836 0)
(-0.444289 1.5364 0)
(-0.519498 1.74587 0)
(-0.37298 -1.93542 0)
(-0.360161 -4.03361 0)
(0.103196 0.168455 0)
(0.0608945 -0.589148 0)
(-0.0802171 -0.59999 0)
(0.546 0.274914 0)
(0.379922 0.267717 0)
(0.198294 0.199987 0)
(0.118732 0.200535 0)
(0.0564583 0.199834 0)
(-0.000807178 0.208888 0)
(-0.0567896 0.228357 0)
(-0.111185 0.263081 0)
(-0.163092 0.323105 0)
(-0.210566 0.425068 0)
(-0.246319 0.596852 0)
(-0.2464 0.888498 0)
(-0.122769 1.49417 0)
(0.112447 1.66584 0)
(0.330729 -1.82656 0)
(-0.435156 -4.1097 0)
(0.0276286 0.138668 0)
(0.0375762 -0.119139 0)
(0.0875703 -0.283995 0)
(0.102931 -0.269043 0)
(0.132103 -0.172517 0)
(0.165725 -0.124893 0)
(0.204111 -0.109079 0)
(0.242307 -0.102242 0)
(0.276414 -0.0960123 0)
(0.305927 -0.087977 0)
(0.332037 -0.0765368 0)
(0.354464 -0.0608073 0)
(0.37315 -0.0414926 0)
(0.388696 -0.0185829 0)
(0.399154 0.00743704 0)
(0.400867 0.0350659 0)
(0.395797 0.0630249 0)
(0.389723 0.0917313 0)
(0.384427 0.121863 0)
(0.38052 0.152309 0)
(0.379155 0.184148 0)
(0.37866 0.224658 0)
(0.395568 0.319652 0)
(0.0459468 -0.0388257 0)
(0.228676 -0.203156 0)
(0.370042 -0.308746 0)
(0.204063 -0.223357 0)
(0.170114 -0.189069 0)
(0.192223 -0.161761 0)
(0.232716 -0.15061 0)
(0.274587 -0.141082 0)
(0.315142 -0.129928 0)
(0.354396 -0.117072 0)
(0.386413 -0.0977758 0)
(0.403157 -0.0726107 0)
(0.404745 -0.0495568 0)
(0.39988 -0.0312883 0)
(0.396968 -0.0086423 0)
(0.401699 0.0281442 0)
(0.41511 0.0673732 0)
(0.425667 0.100382 0)
(0.421367 0.128821 0)
(0.411662 0.154403 0)
(0.410798 0.179867 0)
(0.428285 0.20831 0)
(0.476743 0.238085 0)
(0.0632973 -0.282037 0)
(0.304462 -0.466413 0)
(0.144154 -0.0925056 0)
(0.00599067 -0.170668 0)
(-0.0118542 -0.168374 0)
(-0.0450908 -0.171192 0)
(-0.0946435 -0.16207 0)
(-0.114234 -0.154545 0)
(-0.160301 -0.138402 0)
(-0.178186 -0.153903 0)
(-0.0333216 -0.160846 0)
(0.148288 -0.120412 0)
(0.285588 -0.0761911 0)
(0.384867 -0.0384617 0)
(0.447039 -0.000621625 0)
(0.426779 0.0438919 0)
(0.380076 0.063638 0)
(0.386036 0.0790233 0)
(0.410814 0.117337 0)
(0.429896 0.158533 0)
(0.437024 0.177684 0)
(0.447235 0.181537 0)
(0.474141 0.17644 0)
(-0.0770914 -0.225539 0)
(-0.150966 -0.268255 0)
(-0.0872988 -0.102591 0)
(0.0130831 -0.200349 0)
(0.00442205 -0.162777 0)
(0.00798864 -0.150104 0)
(0.0112652 -0.122689 0)
(0.00995066 -0.0504959 0)
(-0.0337833 0.063305 0)
(-0.240437 -0.179519 0)
(-0.206204 -0.418221 0)
(-0.0843012 -0.280074 0)
(0.043616 -0.178385 0)
(0.156077 -0.201614 0)
(0.121479 -0.20133 0)
(0.0744052 0.0361389 0)
(0.401653 0.036481 0)
(0.467759 0.122802 0)
(0.440625 0.145216 0)
(0.396788 0.149632 0)
(0.384548 0.147591 0)
(0.410394 0.150226 0)
(0.448557 0.150242 0)
(-0.0428513 -0.124662 0)
(-0.068268 -0.289806 0)
(-0.0498507 -0.180817 0)
(-0.0322061 -0.177404 0)
(-0.0230324 -0.17099 0)
(-0.0137913 -0.157233 0)
(-0.00506395 -0.133527 0)
(0.0130203 -0.0922764 0)
(0.0886464 0.00625099 0)
(0.137842 0.0132676 0)
(0.013245 -0.351014 0)
(-0.0633464 -0.321733 0)
(-0.039017 -0.272796 0)
(0.0221168 -0.237338 0)
(0.0621612 -0.195674 0)
(0.178705 -0.133934 0)
(0.221446 -0.0700049 0)
(0.333312 0.243975 0)
(0.381466 0.0633181 0)
(0.432082 0.151939 0)
(0.48053 0.179992 0)
(0.478353 0.170553 0)
(0.431277 0.132539 0)
(-0.0412256 -0.0372436 0)
(-0.0605488 -0.289776 0)
(-0.0385605 -0.209091 0)
(-0.0198016 -0.192478 0)
(-0.00397044 -0.18429 0)
(0.0115041 -0.170645 0)
(0.0299944 -0.151519 0)
(0.0584495 -0.126492 0)
(0.107602 -0.102054 0)
(0.221514 -0.0589783 0)
(0.237063 -0.217899 0)
(0.14886 -0.269683 0)
(0.11027 -0.282948 0)
(0.104335 -0.259345 0)
(0.117258 -0.216784 0)
(0.137335 -0.178012 0)
(0.156525 -0.134887 0)
(0.215339 -0.0455832 0)
(0.313713 0.0126204 0)
(0.446362 0.0914756 0)
(0.512792 0.206994 0)
(0.334785 0.132041 0)
(0.470535 0.176822 0)
(-0.0393581 0.0443421 0)
(-0.0520029 -0.304478 0)
(-0.027948 -0.228441 0)
(-0.00952508 -0.209201 0)
(0.007317 -0.200512 0)
(0.0246282 -0.188593 0)
(0.0452111 -0.175044 0)
(0.0723707 -0.161776 0)
(0.10713 -0.154323 0)
(0.162579 -0.153214 0)
(0.204878 -0.202986 0)
(0.194615 -0.231158 0)
(0.178934 -0.251439 0)
(0.160313 -0.252517 0)
(0.161675 -0.230074 0)
(0.180925 -0.202152 0)
(0.214396 -0.171923 0)
(0.275681 -0.134175 0)
(0.385356 -0.0992903 0)
(0.562033 -0.0614962 0)
(0.783323 0.0363459 0)
(0.993347 0.278192 0)
(0.878953 0.335089 0)
(-0.029297 0.108091 0)
(-0.0411397 -0.322405 0)
(-0.0159394 -0.247722 0)
(0.00151517 -0.226116 0)
(0.0179524 -0.217521 0)
(0.0352897 -0.207482 0)
(0.0552032 -0.197913 0)
(0.0788248 -0.190622 0)
(0.106644 -0.188046 0)
(0.137401 -0.194222 0)
(0.161539 -0.215099 0)
(0.170073 -0.233371 0)
(0.173797 -0.244615 0)
(0.173245 -0.247325 0)
(0.179132 -0.240942 0)
(0.199857 -0.231164 0)
(0.239522 -0.222637 0)
(0.307008 -0.219082 0)
(0.415004 -0.240641 0)
(0.599321 -0.293514 0)
(0.826026 -0.225993 0)
(1.04101 -0.00290303 0)
(1.24793 0.371896 0)
(-0.00324659 0.140253 0)
(-0.0201158 -0.336429 0)
(-0.00189397 -0.264995 0)
(0.0124333 -0.241529 0)
(0.0271788 -0.233667 0)
(0.0432911 -0.225382 0)
(0.0613516 -0.218464 0)
(0.0815953 -0.214061 0)
(0.10352 -0.213509 0)
(0.125444 -0.218381 0)
(0.143333 -0.229213 0)
(0.154061 -0.24091 0)
(0.16108 -0.24915 0)
(0.167995 -0.253388 0)
(0.179276 -0.255503 0)
(0.198703 -0.259214 0)
(0.23046 -0.270124 0)
(0.281236 -0.297367 0)
(0.362025 -0.368331 0)
(0.486413 -0.491519 0)
(0.595379 -0.381289 0)
(0.688258 -0.12802 0)
(0.821746 0.232537 0)
(0.00691238 0.123836 0)
(0.00455733 -0.342129 0)
(0.0115559 -0.277062 0)
(0.0221845 -0.254415 0)
(0.0349742 -0.248207 0)
(0.0494682 -0.241609 0)
(0.0655501 -0.236476 0)
(0.0829497 -0.233539 0)
(0.101 -0.233393 0)
(0.118414 -0.236583 0)
(0.133398 -0.2428 0)
(0.144775 -0.250177 0)
(0.153603 -0.256888 0)
(0.162066 -0.262744 0)
(0.172261 -0.269162 0)
(0.185755 -0.279521 0)
(0.203521 -0.299751 0)
(0.225314 -0.34049 0)
(0.251009 -0.423202 0)
(0.241762 -0.563965 0)
(0.246608 -0.380781 0)
(0.189329 -0.201383 0)
(0.207095 0.137134 0)
(0.00646769 0.101727 0)
(0.0187583 -0.345173 0)
(0.0207779 -0.284512 0)
(0.0296761 -0.265329 0)
(0.0410765 -0.261186 0)
(0.0541875 -0.256185 0)
(0.0686001 -0.25233 0)
(0.0838574 -0.250154 0)
(0.0993281 -0.249909 0)
(0.114146 -0.251758 0)
(0.127345 -0.255452 0)
(0.138355 -0.260231 0)
(0.14741 -0.265411 0)
(0.155223 -0.27108 0)
(0.162449 -0.278375 0)
(0.169046 -0.289738 0)
(0.173363 -0.309224 0)
(0.17048 -0.343322 0)
(0.14891 -0.4016 0)
(0.0583144 -0.508136 0)
(0.0137621 -0.314675 0)
(-0.11191 -0.108498 0)
(-0.243439 0.162507 0)
(0.00588018 0.0804394 0)
(0.0231989 -0.349648 0)
(0.0260237 -0.290749 0)
(0.0346903 -0.275368 0)
(0.045507 -0.273124 0)
(0.0577309 -0.269482 0)
(0.070951 -0.266555 0)
(0.084714 -0.264785 0)
(0.0984946 -0.264285 0)
(0.111684 -0.265106 0)
(0.123666 -0.267104 0)
(0.134 -0.269957 0)
(0.142535 -0.273413 0)
(0.149254 -0.277614 0)
(0.153895 -0.28325 0)
(0.155412 -0.291581 0)
(0.151201 -0.304307 0)
(0.135744 -0.323084 0)
(0.0979304 -0.348084 0)
(0.0141346 -0.377693 0)
(-0.112118 -0.296534 0)
(-0.0856927 0.00946355 0)
(-0.122521 0.186536 0)
(0.0046942 0.061448 0)
(0.0233316 -0.356838 0)
(0.0284045 -0.297721 0)
(0.0377023 -0.285425 0)
(0.0485474 -0.284604 0)
(0.0603698 -0.281982 0)
(0.0728774 -0.279692 0)
(0.0857015 -0.278117 0)
(0.0984319 -0.277311 0)
(0.110622 -0.277292 0)
(0.121819 -0.277965 0)
(0.131624 -0.27916 0)
(0.139707 -0.28074 0)
(0.145694 -0.282731 0)
(0.148928 -0.285345 0)
(0.148136 -0.288854 0)
(0.140995 -0.293231 0)
(0.123608 -0.297331 0)
(0.0901918 -0.297053 0)
(0.0340901 -0.281677 0)
(-0.0488601 -0.226588 0)
(-0.0719589 -0.0791928 0)
(0.0627887 0.0895748 0)
(0.00359161 0.0451166 0)
(0.0218506 -0.366188 0)
(0.0291393 -0.30608 0)
(0.039373 -0.296003 0)
(0.0505878 -0.296081 0)
(0.0623745 -0.294124 0)
(0.0745697 -0.292221 0)
(0.0869062 -0.290691 0)
(0.099077 -0.289556 0)
(0.110745 -0.288807 0)
(0.121552 -0.288356 0)
(0.131138 -0.288058 0)
(0.13913 -0.287759 0)
(0.145059 -0.287322 0)
(0.148231 -0.286587 0)
(0.147572 -0.285204 0)
(0.14151 -0.282286 0)
(0.128017 -0.275778 0)
(0.105195 -0.261451 0)
(0.073365 -0.231738 0)
(0.0400105 -0.176348 0)
(0.0275466 -0.0905825 0)
(0.0505359 -0.006285 0)
(0.00272159 0.0311469 0)
(0.0200835 -0.377003 0)
(0.0290903 -0.315802 0)
(0.0402513 -0.30728 0)
(0.0519844 -0.307824 0)
(0.0639788 -0.30623 0)
(0.0761706 -0.304515 0)
(0.0883792 -0.302927 0)
(0.10038 -0.301454 0)
(0.111917 -0.300059 0)
(0.122708 -0.298633 0)
(0.132448 -0.297017 0)
(0.140799 -0.295 0)
(0.147341 -0.292314 0)
(0.151521 -0.288569 0)
(0.152611 -0.283127 0)
(0.149761 -0.274866 0)
(0.142232 -0.261847 0)
(0.130039 -0.240993 0)
(0.115238 -0.208216 0)
(0.103575 -0.160127 0)
(0.10408 -0.0986524 0)
(0.122037 -0.0346623 0)
(0.00207836 0.0190362 0)
(0.0184912 -0.38874 0)
(0.028754 -0.326639 0)
(0.040747 -0.319256 0)
(0.0530415 -0.319969 0)
(0.0653918 -0.318527 0)
(0.0778034 -0.316866 0)
(0.0901592 -0.31516 0)
(0.102298 -0.313361 0)
(0.114029 -0.311403 0)
(0.125138 -0.309156 0)
(0.135389 -0.306431 0)
(0.144515 -0.302973 0)
(0.152201 -0.298434 0)
(0.158084 -0.292326 0)
(0.161765 -0.283942 0)
(0.16291 -0.272239 0)
(0.161469 -0.255716 0)
(0.158092 -0.232427 0)
(0.154679 -0.200379 0)
(0.154659 -0.158652 0)
(0.161994 -0.109082 0)
(0.178439 -0.0565778 0)
(0.00170332 0.00811167 0)
(0.0172001 -0.401035 0)
(0.0284381 -0.3384 0)
(0.0411807 -0.331899 0)
(0.0540307 -0.332587 0)
(0.0668134 -0.331169 0)
(0.0795835 -0.329489 0)
(0.0922715 -0.327645 0)
(0.104768 -0.325559 0)
(0.116941 -0.323141 0)
(0.128639 -0.320242 0)
(0.139694 -0.316652 0)
(0.149921 -0.312087 0)
(0.15912 -0.306174 0)
(0.167097 -0.298414 0)
(0.173699 -0.288148 0)
(0.178899 -0.274512 0)
(0.182946 -0.256426 0)
(0.186566 -0.232708 0)
(0.191141 -0.202388 0)
(0.198616 -0.165263 0)
(0.210835 -0.122473 0)
(0.228418 -0.07638 0)
(0.00163607 -0.00240054 0)
(0.0163314 -0.413652 0)
(0.0283724 -0.350977 0)
(0.0417776 -0.345162 0)
(0.0551415 -0.345698 0)
(0.0683747 -0.344236 0)
(0.0815693 -0.342508 0)
(0.0946943 -0.340543 0)
(0.107687 -0.338241 0)
(0.120467 -0.335491 0)
(0.13294 -0.332131 0)
(0.145004 -0.32794 0)
(0.156551 -0.322627 0)
(0.167483 -0.315825 0)
(0.177736 -0.307072 0)
(0.187314 -0.295801 0)
(0.19635 -0.28133 0)
(0.205188 -0.262885 0)
(0.214458 -0.239719 0)
(0.225099 -0.211304 0)
(0.23822 -0.177575 0)
(0.254716 -0.1391 0)
(0.274758 -0.096971 0)
(0.00186561 -0.0132464 0)
(0.0160063 -0.426467 0)
(0.0287215 -0.364258 0)
(0.0426597 -0.358952 0)
(0.0564516 -0.359266 0)
(0.0701046 -0.35774 0)
(0.0837367 -0.355976 0)
(0.0973475 -0.353942 0)
(0.110914 -0.351521 0)
(0.124399 -0.348589 0)
(0.137756 -0.344974 0)
(0.150941 -0.340454 0)
(0.163915 -0.334749 0)
(0.176666 -0.327518 0)
(0.189224 -0.318352 0)
(0.20169 -0.306776 0)
(0.214269 -0.292255 0)
(0.227316 -0.27422 0)
(0.241349 -0.252146 0)
(0.257011 -0.225666 0)
(0.274958 -0.194668 0)
(0.295638 -0.159315 0)
(0.319035 -0.119952 0)
(0.00232417 -0.0250239 0)
(0.0163068 -0.439509 0)
(0.0295978 -0.378093 0)
(0.0438672 -0.373126 0)
(0.0579651 -0.373212 0)
(0.0719766 -0.371654 0)
(0.0860278 -0.369904 0)
(0.10014 -0.367885 0)
(0.114317 -0.365464 0)
(0.128555 -0.362507 0)
(0.142843 -0.358844 0)
(0.157184 -0.35426 0)
(0.171601 -0.348499 0)
(0.186144 -0.341253 0)
(0.200914 -0.332169 0)
(0.216074 -0.320852 0)
(0.231866 -0.306877 0)
(0.248638 -0.289798 0)
(0.266827 -0.269205 0)
(0.286918 -0.244765 0)
(0.309354 -0.21626 0)
(0.334392 -0.183557 0)
(0.361954 -0.146508 0)
(0.00288931 -0.0381129 0)
(0.0173276 -0.453024 0)
(0.0310319 -0.392239 0)
(0.0453591 -0.3875 0)
(0.0596364 -0.387444 0)
(0.073942 -0.385932 0)
(0.0883815 -0.384284 0)
(0.102985 -0.382386 0)
(0.117774 -0.380095 0)
(0.132767 -0.377273 0)
(0.147983 -0.373758 0)
(0.163461 -0.369355 0)
(0.179269 -0.363835 0)
(0.195507 -0.356932 0)
(0.212322 -0.348343 0)
(0.229917 -0.337742 0)
(0.24856 -0.324783 0)
(0.268597 -0.309105 0)
(0.290433 -0.290354 0)
(0.314505 -0.2682 0)
(0.341215 -0.242315 0)
(0.370815 -0.212333 0)
(0.403307 -0.177734 0)
(0.00339019 -0.0526723 0)
(0.0190535 -0.467338 0)
(0.0328142 -0.406341 0)
(0.0469678 -0.401899 0)
(0.0613416 -0.401883 0)
(0.075892 -0.40053 0)
(0.0906828 -0.399088 0)
(0.105743 -0.397423 0)
(0.121106 -0.395393 0)
(0.136811 -0.392862 0)
(0.152904 -0.389681 0)
(0.169457 -0.385681 0)
(0.186569 -0.380664 0)
(0.204368 -0.374404 0)
(0.223034 -0.366647 0)
(0.242792 -0.357125 0)
(0.263924 -0.345559 0)
(0.286781 -0.331652 0)
(0.311775 -0.315104 0)
(0.339365 -0.295595 0)
(0.370032 -0.272744 0)
(0.4042 -0.246025 0)
(0.442144 -0.214623 0)
(0.00364441 -0.0686251 0)
(0.0210635 -0.48244 0)
(0.0344431 -0.420099 0)
(0.0484123 -0.416261 0)
(0.0628741 -0.416491 0)
(0.0776362 -0.415412 0)
(0.0927365 -0.414277 0)
(0.108201 -0.41295 0)
(0.124073 -0.411303 0)
(0.140416 -0.40921 0)
(0.157305 -0.406542 0)
(0.174838 -0.40315 0)
(0.193136 -0.398868 0)
(0.212348 -0.393505 0)
(0.232666 -0.386853 0)
(0.254326 -0.378697 0)
(0.277615 -0.368816 0)
(0.302889 -0.356982 0)
(0.330573 -0.342962 0)
(0.361181 -0.326501 0)
(0.395336 -0.307256 0)
(0.433751 -0.284687 0)
(0.477201 -0.25784 0)
(0.00362862 -0.0856951 0)
(0.0226703 -0.497807 0)
(0.0354427 -0.433504 0)
(0.0494462 -0.430667 0)
(0.0640396 -0.431254 0)
(0.0789893 -0.43054 0)
(0.0943503 -0.429796 0)
(0.110156 -0.4289 0)
(0.126466 -0.427748 0)
(0.143365 -0.426232 0)
(0.160955 -0.424241 0)
(0.179354 -0.421645 0)
(0.198701 -0.418302 0)
(0.219157 -0.414054 0)
(0.240925 -0.408733 0)
(0.264241 -0.402172 0)
(0.289386 -0.394206 0)
(0.316711 -0.384676 0)
(0.346645 -0.373443 0)
(0.379741 -0.360377 0)
(0.416749 -0.345307 0)
(0.458704 -0.327905 0)
(0.50705 -0.30741 0)
(0.00362017 -0.103666 0)
(0.0234935 -0.51274 0)
(0.0356992 -0.446825 0)
(0.0499772 -0.445254 0)
(0.0647291 -0.446168 0)
(0.0798298 -0.445868 0)
(0.0953866 -0.445582 0)
(0.111454 -0.445201 0)
(0.128113 -0.444646 0)
(0.145468 -0.443832 0)
(0.163638 -0.442663 0)
(0.182759 -0.441027 0)
(0.202984 -0.438801 0)
(0.224489 -0.435856 0)
(0.247478 -0.432058 0)
(0.272186 -0.427278 0)
(0.29888 -0.4214 0)
(0.327886 -0.414335 0)
(0.359601 -0.406045 0)
(0.394547 -0.39657 0)
(0.433499 -0.38604 0)
(0.477696 -0.374628 0)
(0.529229 -0.362329 0)
(0.00389539 -0.122603 0)
(0.0236182 -0.52669 0)
(0.0353983 -0.460341 0)
(0.0500207 -0.460072 0)
(0.0648799 -0.461199 0)
(0.0800548 -0.461329 0)
(0.0957061 -0.461546 0)
(0.111918 -0.461748 0)
(0.128793 -0.461881 0)
(0.146454 -0.461877 0)
(0.165034 -0.461653 0)
(0.184684 -0.461114 0)
(0.205571 -0.460157 0)
(0.227877 -0.458673 0)
(0.251811 -0.456557 0)
(0.277601 -0.453706 0)
(0.305491 -0.450038 0)
(0.335762 -0.445512 0)
(0.368714 -0.440164 0)
(0.404722 -0.434199 0)
(0.444372 -0.428102 0)
(0.488744 -0.422781 0)
(0.540045 -0.419658 0)
(0.00443741 -0.142713 0)
(0.0232618 -0.539334 0)
(0.034787 -0.474164 0)
(0.0496337 -0.475021 0)
(0.0644638 -0.47625 0)
(0.0795827 -0.476808 0)
(0.0951848 -0.477554 0)
(0.111382 -0.478395 0)
(0.1283 -0.479289 0)
(0.146075 -0.480182 0)
(0.164853 -0.481005 0)
(0.184797 -0.481677 0)
(0.206084 -0.482112 0)
(0.228904 -0.482221 0)
(0.253469 -0.481913 0)
(0.280001 -0.481105 0)
(0.308718 -0.479723 0)
(0.339823 -0.477718 0)
(0.373468 -0.475133 0)
(0.409765 -0.472235 0)
(0.448858 -0.469747 0)
(0.491051 -0.469203 0)
(0.537295 -0.473613 0)
(0.00520609 -0.164241 0)
(0.0226641 -0.55059 0)
(0.0340828 -0.488228 0)
(0.0489032 -0.489896 0)
(0.063512 -0.491164 0)
(0.0784028 -0.492147 0)
(0.0937821 -0.49344 0)
(0.109784 -0.49496 0)
(0.12655 -0.496673 0)
(0.144228 -0.498532 0)
(0.162973 -0.500482 0)
(0.182956 -0.502455 0)
(0.204363 -0.504381 0)
(0.227394 -0.506186 0)
(0.252271 -0.507794 0)
(0.279209 -0.509121 0)
(0.308395 -0.510063 0)
(0.339959 -0.510505 0)
(0.37392 -0.510398 0)
(0.41014 -0.509907 0)
(0.448193 -0.509607 0)
(0.487085 -0.510874 0)
(0.524918 -0.516913 0)
(0.00635199 -0.187715 0)
(0.0221745 -0.560514 0)
(0.0334453 -0.502307 0)
(0.0479129 -0.504438 0)
(0.0620811 -0.505749 0)
(0.0765485 -0.507161 0)
(0.0915182 -0.50902 0)
(0.107137 -0.511252 0)
(0.123553 -0.513826 0)
(0.140919 -0.516702 0)
(0.159397 -0.519834 0)
(0.179164 -0.523174 0)
(0.200419 -0.526668 0)
(0.223378 -0.53026 0)
(0.248269 -0.533879 0)
(0.275307 -0.53742 0)
(0.30467 -0.540726 0)
(0.336488 -0.543597 0)
(0.370777 -0.545838 0)
(0.407306 -0.547307 0)
(0.445293 -0.547927 0)
(0.482789 -0.547764 0)
(0.515488 -0.547426 0)
(0.00801179 -0.213988 0)
(0.0220931 -0.569067 0)
(0.0329291 -0.516036 0)
(0.046704 -0.518372 0)
(0.0602102 -0.519796 0)
(0.0740585 -0.521658 0)
(0.0884368 -0.524107 0)
(0.103493 -0.52708 0)
(0.119373 -0.530546 0)
(0.136231 -0.534472 0)
(0.154234 -0.538828 0)
(0.173569 -0.543586 0)
(0.194448 -0.548716 0)
(0.217099 -0.554175 0)
(0.241762 -0.559889 0)
(0.268669 -0.565738 0)
(0.298055 -0.571539 0)
(0.330154 -0.577041 0)
(0.365121 -0.581888 0)
(0.40288 -0.585539 0)
(0.44285 -0.587074 0)
(0.483408 -0.584811 0)
(0.520831 -0.57567 0)
(0.0101186 -0.243882 0)
(0.0224316 -0.576039 0)
(0.0324709 -0.529018 0)
(0.045277 -0.531453 0)
(0.0579363 -0.533109 0)
(0.0710012 -0.535462 0)
(0.0846384 -0.538535 0)
(0.0989844 -0.542275 0)
(0.11418 -0.546658 0)
(0.130379 -0.551663 0)
(0.147752 -0.557278 0)
(0.166495 -0.563501 0)
(0.186826 -0.570323 0)
(0.208982 -0.577716 0)
(0.233221 -0.585616 0)
(0.259832 -0.593921 0)
(0.289154 -0.602479 0)
(0.321571 -0.611036 0)
(0.357466 -0.61914 0)
(0.397171 -0.626005 0)
(0.440887 -0.63019 0)
(0.488449 -0.628912 0)
(0.539077 -0.616939 0)
(0.0123983 -0.277741 0)
(0.0228851 -0.581206 0)
(0.0319197 -0.540952 0)
(0.0436052 -0.543508 0)
(0.0553033 -0.545539 0)
(0.0674759 -0.54844 0)
(0.0802685 -0.552176 0)
(0.0938013 -0.556712 0)
(0.108205 -0.562035 0)
(0.123632 -0.568143 0)
(0.140253 -0.575046 0)
(0.158263 -0.582765 0)
(0.177881 -0.591316 0)
(0.199352 -0.600693 0)
(0.222965 -0.610873 0)
(0.249072 -0.621815 0)
(0.278107 -0.633436 0)
(0.310594 -0.645546 0)
(0.347183 -0.657763 0)
(0.388735 -0.669387 0)
(0.436425 -0.679059 0)
(0.49194 -0.684127 0)
(0.55798 -0.679599 0)
(0.0144566 -0.315151 0)
(0.0229904 -0.584555 0)
(0.0310774 -0.551701 0)
(0.0416244 -0.55447 0)
(0.0523202 -0.557007 0)
(0.0635435 -0.560512 0)
(0.0754252 -0.564947 0)
(0.0880682 -0.5703 0)
(0.101593 -0.576578 0)
(0.116145 -0.583799 0)
(0.131889 -0.591998 0)
(0.149012 -0.601219 0)
(0.167733 -0.611505 0)
(0.188302 -0.622891 0)
(0.211031 -0.635418 0)
(0.236304 -0.649125 0)
(0.264603 -0.664028 0)
(0.296554 -0.680091 0)
(0.333015 -0.69718 0)
(0.375242 -0.71499 0)
(0.425163 -0.732849 0)
(0.485888 -0.749389 0)
(0.562691 -0.761967 0)
(0.0158807 -0.354921 0)
(0.0223676 -0.586418 0)
(0.0297785 -0.56129 0)
(0.0392628 -0.564358 0)
(0.0489685 -0.567485 0)
(0.0592229 -0.571632 0)
(0.0701508 -0.576786 0)
(0.0818427 -0.582963 0)
(0.0944079 -0.590193 0)
(0.10798 -0.598516 0)
(0.122713 -0.60799 0)
(0.138782 -0.618684 0)
(0.156397 -0.630675 0)
(0.175802 -0.644046 0)
(0.1973 -0.658904 0)
(0.221264 -0.675374 0)
(0.248175 -0.693598 0)
(0.278677 -0.713748 0)
(0.31368 -0.736034 0)
(0.354547 -0.760727 0)
(0.40344 -0.788181 0)
(0.463887 -0.818911 0)
(0.541874 -0.853687 0)
(0.0163554 -0.395295 0)
(0.0208999 -0.587458 0)
(0.0279519 -0.569828 0)
(0.0364803 -0.573241 0)
(0.0452266 -0.576986 0)
(0.0545056 -0.581778 0)
(0.0644419 -0.587646 0)
(0.0751162 -0.59463 0)
(0.0866256 -0.602783 0)
(0.0990889 -0.612166 0)
(0.112643 -0.622857 0)
(0.127448 -0.634953 0)
(0.143691 -0.648562 0)
(0.161593 -0.663812 0)
(0.181425 -0.680869 0)
(0.203516 -0.699941 0)
(0.22829 -0.721295 0)
(0.256316 -0.745305 0)
(0.288381 -0.772514 0)
(0.32563 -0.803744 0)
(0.369821 -0.840314 0)
(0.423744 -0.884474 0)
(0.491958 -0.940198 0)
(0.0158957 -0.434352 0)
(0.0187056 -0.588421 0)
(0.025569 -0.577428 0)
(0.0332039 -0.581181 0)
(0.0409863 -0.58551 0)
(0.049252 -0.590914 0)
(0.0581262 -0.597457 0)
(0.0676795 -0.6052 0)
(0.0779965 -0.614212 0)
(0.0891809 -0.624574 0)
(0.101352 -0.636385 0)
(0.114649 -0.649762 0)
(0.129232 -0.664842 0)
(0.145289 -0.681789 0)
(0.163046 -0.700816 0)
(0.182767 -0.722196 0)
(0.204778 -0.74629 0)
(0.229493 -0.773613 0)
(0.257433 -0.804923 0)
(0.289274 -0.841375 0)
(0.32592 -0.884826 0)
(0.368573 -0.938381 0)
(0.418752 -1.00749 0)
(0.0148407 -0.470612 0)
(0.0160283 -0.589773 0)
(0.0226315 -0.584121 0)
(0.0293449 -0.588174 0)
(0.0361015 -0.593012 0)
(0.0432758 -0.598965 0)
(0.0509879 -0.606116 0)
(0.059299 -0.61454 0)
(0.0682834 -0.624322 0)
(0.0780304 -0.635557 0)
(0.0886415 -0.648361 0)
(0.100234 -0.662868 0)
(0.112939 -0.679237 0)
(0.126906 -0.697657 0)
(0.14231 -0.718371 0)
(0.159335 -0.741685 0)
(0.178183 -0.768002 0)
(0.199074 -0.797882 0)
(0.222205 -0.83213 0)
(0.24771 -0.871937 0)
(0.275566 -0.919135 0)
(0.305352 -0.9766 0)
(0.335712 -1.04892 0)
(0.013442 -0.50321 0)
(0.0131481 -0.59155 0)
(0.0192589 -0.589858 0)
(0.0249569 -0.594168 0)
(0.0306067 -0.599426 0)
(0.0366138 -0.605851 0)
(0.04308 -0.613529 0)
(0.0500578 -0.622545 0)
(0.0576103 -0.632992 0)
(0.0658113 -0.644981 0)
(0.0747438 -0.658638 0)
(0.0845011 -0.674109 0)
(0.0951855 -0.691567 0)
(0.106907 -0.711212 0)
(0.119781 -0.733297 0)
(0.133915 -0.758129 0)
(0.14939 -0.786095 0)
(0.166243 -0.81771 0)
(0.184393 -0.853674 0)
(0.203533 -0.894963 0)
(0.222958 -0.942972 0)
(0.241229 -0.999672 0)
(0.25551 -1.06774 0)
(0.0117336 -0.531819 0)
(0.0102974 -0.593451 0)
(0.0156331 -0.594485 0)
(0.0201989 -0.599028 0)
(0.0246785 -0.60463 0)
(0.0294684 -0.611451 0)
(0.0346353 -0.619573 0)
(0.0402201 -0.629085 0)
(0.0462729 -0.640091 0)
(0.0528508 -0.652709 0)
(0.0600171 -0.667072 0)
(0.0678416 -0.683336 0)
(0.076398 -0.701677 0)
(0.085759 -0.722298 0)
(0.0959909 -0.745442 0)
(0.107134 -0.771391 0)
(0.119184 -0.800477 0)
(0.132049 -0.833111 0)
(0.145472 -0.869793 0)
(0.158901 -0.911144 0)
(0.1713 -0.957946 0)
(0.180832 -1.01111 0)
(0.184409 -1.07161 0)
(0.00958027 -0.556066 0)
(0.00758542 -0.595299 0)
(0.0118494 -0.598091 0)
(0.0151677 -0.602852 0)
(0.0184412 -0.608732 0)
(0.0219791 -0.615868 0)
(0.0258067 -0.624337 0)
(0.0299511 -0.634235 0)
(0.0344473 -0.64567 0)
(0.0393353 -0.658768 0)
(0.0446592 -0.673667 0)
(0.0504671 -0.690524 0)
(0.0568076 -0.709518 0)
(0.0637229 -0.730842 0)
(0.0712432 -0.754721 0)
(0.079368 -0.781397 0)
(0.0880456 -0.811131 0)
(0.0971323 -0.844205 0)