/*--------------------------------*- C++ -*----------------------------------*\
| =========                 |                                                 |
| \\      /  F ield         | OpenFOAM: The Open Source CFD Toolbox           |
|  \\    /   O peration     | Version:  v1912                                 |
|   \\  /    A nd           | Website:  www.openfoam.com                      |
|    \\/     M anipulation  |                                                 |
\*---------------------------------------------------------------------------*/
FoamFile
{
    version     2.0;
    format      ascii;
    class       surfaceScalarField;
    location    "0.85";
    object      alphaPhi0.water;
}
// * * * * * * * * * * * * * * * * * * * * * * * * * * * * * * * * * * * * * //

dimensions      [0 3 -1 0 0 0 0];
oriented        oriented;


internalField   nonuniform List<scalar> 
17936
(
-9.2473e-07
3.15652e-06
-2.23179e-06
2.28424e-06
-3.43405e-06
1.14981e-06
4.65901e-06
-6.3428e-06
1.68379e-06
8.09028e-06
-9.2237e-06
1.13342e-06
9.72155e-06
-1.00064e-05
2.84857e-07
1.03217e-05
-1.07256e-05
4.03864e-07
1.12561e-05
-1.18999e-05
6.4385e-07
1.25792e-05
-1.32144e-05
6.35206e-07
1.37552e-05
-1.41864e-05
4.3122e-07
1.45229e-05
-1.47425e-05
2.1965e-07
1.46697e-05
-1.40999e-05
-5.69388e-07
1.3032e-05
-1.17324e-05
-1.17119e-06
1.06498e-05
-1.08415e-05
1.8561e-07
1.19636e-05
-1.32459e-05
8.97653e-07
1.24116e-05
-1.00159e-05
-2.39568e-06
7.10361e-06
-4.12314e-06
-2.98047e-06
9.51443e-07
2.38253e-06
-3.33811e-06
-5.08344e-06
5.33676e-06
-2.54255e-07
-1.78337e-06
-5.54964e-06
7.32587e-06
1.19096e-05
-1.22526e-05
3.70747e-07
8.79971e-06
-5.28364e-06
-3.5272e-06
2.73167e-06
-1.02242e-06
-1.70926e-06
-1.73222e-07
9.17527e-07
-7.44301e-07
-5.74288e-06
8.27166e-06
-2.52877e-06
4.72911e-06
-6.68044e-06
-3.06554e-06
5.01687e-06
8.60854e-06
-1.01301e-05
-3.23816e-06
4.75971e-06
1.09057e-05
-1.09919e-05
-1.19021e-06
1.27646e-06
1.08507e-05
-1.10045e-05
-7.85187e-07
9.38932e-07
1.15941e-05
-1.24306e-05
-1.54456e-06
2.3811e-06
1.33121e-05
-1.41097e-05
-1.61476e-06
2.41232e-06
1.4762e-05
-1.52619e-05
-1.16091e-06
1.66083e-06
1.56106e-05
-1.57995e-05
-6.44348e-07
8.33262e-07
1.58334e-05
-1.57845e-05
-1.03294e-07
5.43986e-08
1.58128e-05
-1.60886e-05
6.70249e-07
-3.94222e-07
1.59142e-05
-1.64013e-05
3.87762e-07
9.45786e-08
1.63215e-05
-1.53009e-05
-1.88924e-07
-9.50091e-07
1.34628e-05
-1.07803e-05
1.79832e-06
-4.50639e-06
8.36106e-06
-6.69548e-06
4.6823e-06
-6.34788e-06
5.86861e-06
-5.92532e-06
4.35759e-06
-4.30087e-06
6.72924e-06
-7.87346e-06
4.85118e-06
-3.70696e-06
9.13549e-06
-1.06823e-05
-6.83519e-07
2.23028e-06
1.19247e-05
-1.0236e-05
-1.17977e-05
9.91622e-06
7.06697e-06
-4.49643e-06
2.39186e-06
-4.91939e-06
2.52234e-06
-9.9205e-07
6.28962e-06
-7.81992e-06
2.272e-07
1.23654e-07
2.60936e-06
-2.96013e-06
-1.94618e-07
4.59185e-08
1.06622e-06
-9.17495e-07
-1.06512e-05
1.29065e-05
-2.25532e-06
4.28978e-06
-6.52413e-06
-7.01451e-06
9.24885e-06
9.3223e-06
-1.19441e-05
-6.808e-06
9.42978e-06
1.33529e-05
-1.32117e-05
-1.33463e-06
1.19342e-06
1.23466e-05
-1.17902e-05
-6.79892e-07
1.23572e-07
1.18271e-05
-1.22169e-05
-2.89675e-06
3.28659e-06
1.27625e-05
-1.34059e-05
-3.09579e-06
3.73921e-06
1.40805e-05
-1.46974e-05
-2.24945e-06
2.86638e-06
1.518e-05
-1.54711e-05
-1.09074e-06
1.38182e-06
1.55395e-05
-1.53778e-05
6.23983e-08
-2.24083e-07
1.49979e-05
-1.43919e-05
5.11594e-07
-1.11764e-06
1.34801e-05
-1.21222e-05
3.27063e-07
-1.63525e-06
1.04344e-05
-8.59791e-06
2.68624e-06
-4.61633e-06
6.84587e-06
-5.39231e-06
6.75248e-06
-8.20604e-06
4.37276e-06
-3.5895e-06
7.5159e-06
-8.30035e-06
2.85952e-06
-2.29479e-06
4.18462e-06
-4.74935e-06
2.36932e-06
-3.46712e-06
1.51552e-06
-4.17711e-07
4.50272e-06
-5.06341e-06
-3.34281e-06
3.89339e-06
3.82001e-06
-7.51559e-07
-6.8055e-06
3.72911e-06
-1.73741e-06
2.59731e-06
7.52396e-06
-8.76623e-06
-2.07999e-06
1.44341e-06
8.05989e-06
-7.42331e-06
-9.88658e-07
6.85027e-07
2.92911e-06
-2.62552e-06
-4.06861e-07
1.44996e-07
6.54194e-07
-3.92299e-07
-1.50818e-05
1.72081e-05
-2.12633e-06
4.23687e-06
-7.07556e-06
-1.18136e-05
1.46523e-05
1.05571e-05
-1.34227e-05
-1.23535e-05
1.52191e-05
1.46001e-05
-1.42239e-05
-8.76363e-07
5.00149e-07
1.32931e-05
-1.26521e-05
5.92354e-07
-1.23339e-06
1.25856e-05
-1.29855e-05
-3.66155e-06
4.06142e-06
1.35823e-05
-1.42271e-05
-4.37696e-06
5.02175e-06
1.48533e-05
-1.53913e-05
-3.45065e-06
3.9887e-06
1.57918e-05
-1.60272e-05
-1.65423e-06
1.8896e-06
1.60772e-05
-1.59107e-05
3.83568e-07
-5.5013e-07
1.54659e-05
-1.46562e-05
1.92265e-06
-2.73234e-06
1.34198e-05
-1.18009e-05
3.29001e-06
-4.90887e-06
9.99541e-06
-8.24681e-06
6.41495e-06
-8.16355e-06
6.70916e-06
-5.41419e-06
9.36546e-06
-1.06604e-05
4.3262e-06
-3.37408e-06
9.06452e-06
-1.00166e-05
2.50657e-06
-1.66338e-06
5.6045e-06
-6.44769e-06
7.5686e-07
2.42279e-07
7.26854e-07
-1.72599e-06
-1.24744e-06
2.58707e-06
-3.91005e-06
2.57042e-06
-4.44082e-06
5.88005e-06
-1.50172e-06
2.53585e-07
-6.07736e-06
4.87883e-06
8.1671e-06
-6.96857e-06
-3.41286e-06
2.27017e-06
6.355e-06
-5.21231e-06
-1.48957e-06
9.22582e-07
2.15167e-06
-1.58468e-06
-4.16455e-07
1.19475e-07
1.3013e-07
1.6685e-07
-1.9298e-05
2.13484e-05
-2.05043e-06
4.29402e-06
-7.14267e-06
-1.75981e-05
2.04467e-05
1.01531e-05
-1.2214e-05
-1.77445e-05
1.98054e-05
1.28534e-05
-1.26012e-05
-1.6582e-07
-8.63887e-08
1.23243e-05
-1.2539e-05
1.54323e-06
-1.32854e-06
1.2996e-05
-1.36018e-05
-4.53199e-06
5.1378e-06
1.43025e-05
-1.49795e-05
-5.67922e-06
6.35623e-06
1.55763e-05
-1.60638e-05
-4.49334e-06
4.9809e-06
1.64146e-05
-1.66093e-05
-2.09685e-06
2.29156e-06
1.66251e-05
-1.64288e-05
7.35519e-07
-9.31847e-07
1.59719e-05
-1.51961e-05
3.52094e-06
-4.29667e-06
1.40585e-05
-1.25709e-05
6.43856e-06
-7.92615e-06
1.08212e-05
-8.94871e-06
9.95558e-06
-1.1828e-05
7.10532e-06
-5.41289e-06
1.21694e-05
-1.38618e-05
3.9253e-06
-2.63683e-06
1.11505e-05
-1.2439e-05
1.54114e-06
-6.31329e-07
7.30683e-06
-8.21664e-06
-1.47863e-07
9.14279e-07
2.62023e-06
-3.38664e-06
-1.85223e-06
3.16088e-06
-9.17999e-07
-3.90652e-07
-4.65202e-06
5.57048e-06
8.24567e-07
-1.74303e-06
-5.49592e-06
4.68809e-06
5.78506e-06
-4.97722e-06
-3.71116e-06
2.82902e-06
4.18792e-06
-3.30577e-06
-2.0694e-06
1.37351e-06
9.54884e-07
-2.58997e-07
-7.25347e-07
2.65242e-07
-5.34424e-07
9.94529e-07
-2.33455e-05
2.52661e-05
-1.92054e-06
4.07144e-06
-6.23502e-06
-2.30174e-05
2.5181e-05
8.14559e-06
-9.32486e-06
-2.14015e-05
2.25808e-05
9.68718e-06
-9.59589e-06
2.60772e-07
-3.51834e-07
1.00556e-05
-1.15828e-05
4.75965e-07
1.05128e-06
1.30318e-05
-1.40689e-05
-5.94136e-06
6.97854e-06
1.49322e-05
-1.56696e-05
-7.06097e-06
7.79838e-06
1.62775e-05
-1.67627e-05
-5.46317e-06
5.94829e-06
1.71158e-05
-1.73207e-05
-2.48611e-06
2.691e-06
1.7353e-05
-1.71779e-05
1.12448e-06
-1.29951e-06
1.67511e-05
-1.60217e-05
5.05452e-06
-5.78388e-06
1.49422e-05
-1.34824e-05
9.39357e-06
-1.08533e-05
1.16481e-05
-9.51616e-06
1.38069e-05
-1.59388e-05
7.26794e-06
-5.12113e-06
1.57535e-05
-1.79003e-05
3.19769e-06
-1.53429e-06
1.38942e-05
-1.55576e-05
2.03411e-07
7.24717e-07
9.1464e-06
-1.00745e-05
-1.31371e-06
1.75361e-06
4.03919e-06
-4.47909e-06
-2.29092e-06
3.09849e-06
1.43267e-06
-2.24024e-06
-4.0806e-06
4.86252e-06
2.55478e-06
-3.3367e-06
-5.11522e-06
4.8267e-06
4.46628e-06
-4.17776e-06
-4.21863e-06
3.44978e-06
2.49855e-06
-1.7297e-06
-2.58919e-06
1.72396e-06
-5.06863e-07
1.37209e-06
-9.45587e-07
3.11211e-07
-1.54963e-06
2.18401e-06
-2.70826e-05
2.874e-05
-1.65738e-06
3.57237e-06
-4.77398e-06
-2.68684e-05
2.807e-05
5.45378e-06
-5.82861e-06
-2.33644e-05
2.37392e-05
6.05351e-06
-6.27837e-06
3.03876e-07
-2.49954e-08
7.92344e-06
-1.08462e-05
-3.21966e-06
5.91643e-06
1.31107e-05
-1.45376e-05
-8.2413e-06
9.66822e-06
1.55565e-05
-1.63556e-05
-8.56864e-06
9.36772e-06
1.69956e-05
-1.75099e-05
-6.44387e-06
6.95817e-06
1.79048e-05
-1.81654e-05
-2.91739e-06
3.178e-06
1.82642e-05
-1.81626e-05
1.44357e-06
-1.54509e-06
1.78135e-05
-1.71615e-05
6.47628e-06
-7.12828e-06
1.6141e-05
-1.46572e-05
1.23194e-05
-1.38032e-05
1.25772e-05
-9.8768e-06
1.82989e-05
-2.09993e-05
6.88442e-06
-4.10509e-06
2.03735e-05
-2.31528e-05
1.72121e-06
3.4088e-07
1.7455e-05
-1.95171e-05
-2.00693e-06
3.07729e-06
1.10353e-05
-1.21056e-05
-3.52046e-06
3.53802e-06
4.65622e-06
-4.67379e-06
-3.51951e-06
3.85229e-06
2.77491e-06
-3.10769e-06
-4.61877e-06
5.56999e-06
4.13551e-06
-5.08673e-06
-6.30758e-06
6.54135e-06
4.12636e-06
-4.36013e-06
-6.1828e-06
5.25008e-06
9.49652e-07
-1.69343e-08
-3.93385e-06
2.41283e-06
-2.45809e-06
3.9791e-06
-1.02779e-06
1.09226e-07
-2.90708e-06
3.82564e-06
-3.01661e-05
3.12283e-05
-1.06219e-06
2.92541e-06
-3.36999e-06
-2.88424e-05
2.9287e-05
3.02389e-06
-2.76603e-06
-2.37369e-05
2.3479e-05
3.14389e-06
-4.21133e-06
-5.35714e-07
1.63558e-06
7.51501e-06
-1.13096e-05
-9.08942e-06
1.28141e-05
1.36862e-05
-1.51393e-05
-1.11514e-05
1.26046e-05
1.62059e-05
-1.70341e-05
-1.01858e-05
1.10141e-05
1.77127e-05
-1.82869e-05
-7.49865e-06
8.07286e-06
1.87645e-05
-1.91242e-05
-3.48296e-06
3.84265e-06
1.9328e-05
-1.93299e-05
1.59779e-06
-1.59587e-06
1.90901e-05
-1.85659e-05
7.7308e-06
-8.25494e-06
1.76454e-05
-1.60907e-05
1.53213e-05
-1.6876e-05
1.36368e-05
-1.03407e-05
2.40986e-05
-2.73946e-05
6.9365e-06
-4.25418e-06
2.60193e-05
-2.87015e-05
2.11947e-06
2.00203e-08
2.16495e-05
-2.37888e-05
-2.02558e-06
3.51557e-06
1.33915e-05
-1.48812e-05
-4.32937e-06
4.63154e-06
4.7379e-06
-5.04007e-06
-4.90828e-06
5.77035e-06
3.53634e-06
-4.39839e-06
-7.37527e-06
9.3024e-06
6.51886e-06
-8.44594e-06
-1.09392e-05
1.18277e-05
4.91496e-06
-5.80352e-06
-1.17389e-05
1.06676e-05
-1.18968e-06
2.26097e-06
-8.55283e-06
5.7586e-06
-6.17842e-06
8.97265e-06
-2.77567e-06
5.75339e-07
-5.24887e-06
7.4492e-06
8.25739e-06
-1.38977e-05
5.64031e-06
-5.3798e-06
-2.75582e-06
8.25573e-06
1.90726e-05
-3.26724e-05
1.35999e-05
3.5683e-05
-3.54222e-05
-2.60866e-07
3.61898e-05
-3.731e-05
1.50711e-06
3.75462e-05
-3.40484e-05
-3.5097e-06
2.65614e-05
-1.52139e-05
-1.15374e-05
3.19097e-06
-7.70953e-07
-2.4273e-06
5.78868e-06
-9.69397e-06
3.87402e-06
1.01082e-05
-6.33925e-06
-3.76889e-06
3.73945e-06
-1.11724e-05
7.5043e-06
1.74729e-05
-1.65198e-05
1.08607e-06
1.14926e-05
-4.00585e-06
-3.69959e-06
-4.57356e-06
1.14151e-05
-1.0407e-06
-1.63798e-05
1.72437e-05
2.49009e-06
-1.12744e-05
9.71791e-07
1.0303e-05
3.85183e-06
-1.34639e-06
-2.50511e-06
-6.67118e-07
-7.59827e-06
7.26429e-06
9.70907e-06
-2.25154e-06
-7.58084e-06
1.60963e-05
-1.40864e-05
-2.0099e-06
6.39199e-06
-2.14686e-05
-2.47055e-05
3.97915e-05
1.87932e-05
-5.26187e-06
-1.46e-05
1.17339e-06
1.99695e-06
-1.00389e-05
-3.46719e-07
9.70681e-08
2.35123e-05
-2.8e-05
-2.72924e-06
7.22001e-06
2.89956e-05
-2.69801e-05
7.01492e-06
-8.74591e-06
1.82396e-05
-7.94221e-06
2.35691e-05
-3.11452e-05
-7.53961e-07
5.72102e-06
7.04421e-06
-1.20113e-05
-5.86064e-06
2.57999e-06
-8.2431e-06
1.15238e-05
2.03137e-06
-8.65156e-06
2.57208e-06
4.04819e-06
1.81974e-05
-9.1774e-06
-1.64537e-05
1.27903e-05
3.93102e-06
-2.7021e-06
2.48205e-07
-1.56878e-06
-2.34627e-07
1.17943e-05
8.4501e-06
-3.69346e-05
-2.88499e-05
3.44275e-05
1.57761e-05
-2.90806e-05
-3.41901e-05
2.81729e-05
-2.01514e-06
3.83863e-06
-1.60888e-05
1.96117e-05
-1.26508e-05
1.95749e-05
-1.003e-05
-8.50041e-07
3.09147e-08
1.08506e-05
5.91588e-06
-1.13932e-05
-1.56798e-05
2.26824e-05
8.09311e-06
-6.7599e-06
1.28045e-05
-6.55564e-06
8.1746e-06
1.01844e-06
-9.19318e-06
1.5167e-05
-6.73938e-06
-4.89689e-05
4.03638e-05
9.94951e-07
-6.53471e-07
1.59271e-08
-7.26992e-07
-2.42916e-06
3.94344e-06
6.02545e-07
-1.79263e-06
-4.76166e-06
6.64833e-06
-2.59886e-06
1.56041e-07
-4.0333e-06
-7.32174e-06
-2.81751e-06
1.00738e-05
2.28489e-05
-2.23095e-05
3.48538e-05
-4.63552e-05
1.87246e-05
-9.25468e-06
1.88439e-05
-2.83134e-05
1.33883e-07
1.10591e-06
-1.30356e-05
1.17958e-05
3.12438e-06
-1.19231e-05
-1.30181e-05
2.18169e-05
1.60214e-05
-4.22647e-06
-9.45831e-06
9.30284e-06
2.46734e-06
2.09432e-06
3.96323e-06
-1.35826e-05
-1.44732e-05
2.57531e-05
6.41452e-05
-7.44366e-05
-3.36977e-05
2.84731e-05
3.30959e-05
-3.14478e-05
-1.716e-05
1.86616e-05
-4.01762e-06
1.31628e-06
-2.77934e-05
2.83582e-05
-3.89011e-05
2.5633e-05
-1.7711e-05
4.22449e-06
-2.56095e-05
3.88331e-05
5.41964e-06
-8.23935e-06
-2.83021e-05
3.3989e-05
8.27052e-06
-7.39782e-06
7.49103e-06
-8.69494e-06
-1.08362e-05
1.83895e-05
-7.55862e-06
1.06839e-05
3.43854e-07
-2.49396e-05
8.07528e-06
-4.64741e-08
2.50812e-06
1.53001e-06
-1.76822e-06
-2.64122e-06
3.17781e-07
1.00879e-06
-1.10204e-06
-7.27199e-08
-2.36205e-08
3.42271e-08
5.36555e-08
2.14023e-07
-1.40252e-05
-2.43698e-06
6.73224e-07
2.94374e-05
-3.36706e-05
4.1716e-05
-3.50062e-05
2.42417e-05
-2.68047e-05
3.34352e-05
-1.21919e-05
2.73394e-05
-1.98616e-05
-5.42672e-06
-2.55856e-06
1.71336e-05
-1.71941e-05
-2.76203e-05
2.76811e-05
9.16241e-06
-3.86759e-06
-7.1053e-06
4.87314e-06
-1.37145e-06
5.07654e-06
1.50466e-05
-1.99885e-05
-1.80546e-05
2.62127e-05
8.14366e-05
-8.86061e-05
-1.07858e-05
2.63487e-06
1.25618e-05
-5.44568e-06
-2.32899e-06
1.81329e-06
-1.13523e-06
1.65055e-06
-1.54933e-06
3.85026e-06
-8.94253e-06
4.31695e-06
-6.93768e-06
8.44275e-06
-3.41431e-05
4.75121e-05
-4.73917e-07
-2.43202e-06
-3.82365e-05
3.28383e-05
3.93436e-06
-3.2674e-06
1.27658e-05
-2.88708e-05
-2.03803e-05
1.20782e-05
5.59733e-06
-7.9827e-06
3.49574e-06
-1.77441e-06
-3.7455e-07
-3.04298e-06
1.9397e-06
1.19724e-06
-9.3323e-07
-3.33835e-06
2.6714e-08
1.16789e-06
-9.30208e-07
-2.15819e-08
-1.43993e-08
-1.06328e-07
1.41461e-07
2.16923e-08
-2.2169e-07
-2.7585e-07
4.04666e-07
1.66115e-05
-2.38065e-05
2.92892e-05
-2.43769e-05
9.72616e-06
-9.54282e-06
1.28897e-05
-1.46359e-05
1.04383e-05
-1.42219e-05
4.38277e-06
-4.38712e-06
1.58068e-05
-1.1565e-05
-1.50816e-05
5.04171e-06
6.65072e-06
-1.61524e-06
1.0568e-06
-4.67812e-06
-1.29128e-06
1.0802e-05
2.57218e-05
-6.72503e-05
-1.58414e-05
1.37378e-05
9.40694e-05
-8.21757e-05
-1.96198e-06
1.41895e-06
3.73676e-06
-3.19288e-06
-1.21862e-06
7.56293e-07
-2.23712e-06
2.69887e-06
-3.16381e-07
7.44575e-07
-3.77545e-06
3.34687e-06
-1.65644e-05
1.34665e-05
-6.19743e-05
6.51166e-05
-6.09441e-06
1.85267e-06
-2.28931e-05
3.86544e-05
-1.7582e-06
4.36842e-06
3.05608e-05
-2.77834e-05
-5.12849e-06
3.14124e-07
5.2996e-06
-1.18485e-05
1.43361e-05
7.52969e-06
-1.41021e-05
-1.22574e-05
7.71017e-06
1.81813e-07
1.71263e-07
-1.84382e-06
1.90723e-08
1.17895e-07
1.81266e-06
1.52473e-08
-1.54639e-08
-1.49464e-07
1.48862e-07
-4.10444e-09
4.37312e-07
-8.5694e-07
1.63315e-05
7.01504e-07
-1.42288e-05
1.64468e-05
-6.36132e-06
1.50122e-05
-1.34591e-05
1.77798e-05
-1.60173e-05
1.81311e-05
-1.8369e-05
4.80176e-06
-4.45914e-06
1.8468e-05
-1.06058e-05
-3.79944e-06
5.0079e-06
9.00989e-06
-5.63508e-06
2.16033e-06
-1.32305e-05
-4.79855e-06
7.24237e-06
7.73325e-05
-7.9736e-05
-4.72193e-07
-9.48775e-06
6.36556e-05
-5.82614e-05
2.61035e-06
-1.08556e-06
2.64075e-06
-4.16645e-06
6.87846e-07
-2.23505e-07
-2.71367e-06
2.2319e-06
-3.72907e-07
9.71448e-07
-2.80947e-06
2.21874e-06
-1.65262e-05
1.10355e-05
-6.9712e-05
7.52259e-05
-5.17237e-06
4.22815e-06
-5.45431e-05
5.55105e-05
-3.85854e-06
6.92654e-06
2.51135e-05
-2.65815e-05
2.27873e-06
-1.32566e-05
4.70323e-06
-1.28571e-05
2.10421e-05
1.65308e-05
-1.85724e-05
-1.99903e-05
1.84713e-05
-6.18255e-07
1.87699e-06
-1.15526e-05
8.10337e-06
-1.28363e-05
3.11007e-05
-6.64402e-06
1.09122e-05
-6.53809e-07
4.99106e-05
-3.16378e-05
3.52156e-05
-4.63816e-05
4.30154e-05
-2.27684e-05
1.26684e-06
-3.56161e-06
2.11144e-05
1.00836e-05
-8.5299e-06
9.34917e-06
-2.92996e-06
1.48789e-05
-1.72459e-05
5.33301e-07
1.15996e-06
9.22942e-06
-1.44656e-05
-6.63514e-07
-1.52343e-06
1.00849e-05
3.16301e-06
5.0635e-05
-6.38829e-05
-4.28421e-06
-2.83663e-06
7.60746e-05
-6.78897e-05
1.44561e-05
-2.71765e-05
4.93406e-05
-5.93727e-05
3.0888e-05
-1.86298e-06
1.56983e-05
-2.65199e-05
1.59105e-06
-1.23037e-06
-1.72965e-06
1.36814e-06
6.42429e-07
-5.94116e-07
-1.73067e-06
1.68375e-06
-2.44735e-07
2.15905e-06
-7.71343e-05
7.62147e-05
-6.23421e-07
3.00932e-06
-5.35364e-05
1.35669e-05
-7.55561e-06
8.35959e-06
2.72193e-05
-2.61229e-05
-3.96693e-05
2.57946e-05
1.53284e-05
-2.26897e-05
2.65171e-05
2.89807e-05
-3.14528e-05
-2.3328e-05
1.86192e-05
-2.25552e-06
3.42157e-06
-1.67707e-05
2.13702e-05
-2.31603e-05
4.37537e-06
-3.434e-05
4.23754e-05
-5.185e-05
2.9824e-05
-4.38351e-05
3.75904e-05
-4.62268e-05
5.25227e-05
-2.84129e-05
1.45058e-05
-4.51784e-05
5.91368e-05
1.3686e-06
-3.44184e-06
-2.81747e-06
1.34491e-05
5.77731e-06
-6.00558e-06
-1.26825e-06
1.44726e-06
1.20395e-05
-4.5823e-06
2.15312e-05
-5.10263e-05
-3.76909e-06
3.72488e-06
6.84459e-05
-6.84018e-05
2.68423e-06
-1.55287e-05
5.74855e-05
-4.46557e-05
2.60793e-05
-1.76479e-05
5.21689e-05
-4.36761e-05
5.01417e-06
-3.69783e-06
1.16829e-05
-1.02186e-05
1.2549e-06
-4.92143e-06
-3.3015e-06
3.59364e-06
5.60597e-06
-1.51862e-06
-1.17955e-05
1.20521e-05
1.07238e-05
-7.39734e-06
-7.1959e-05
3.90975e-05
1.31592e-06
9.0522e-07
-9.77279e-06
6.47943e-06
-1.33686e-05
6.34332e-06
2.26236e-05
-1.56746e-05
-3.16099e-05
3.15407e-05
6.91759e-08
3.23457e-06
-4.11552e-06
-2.96204e-05
3.05013e-05
2.64734e-06
-1.26287e-06
-2.29593e-05
2.15748e-05
3.98889e-06
-1.38302e-05
-4.06959e-06
1.42129e-05
2.37039e-05
-2.90041e-05
-1.61519e-05
2.13036e-05
3.20358e-05
-3.44956e-05
-1.3969e-05
1.64288e-05
3.64751e-05
-3.81804e-05
-1.18331e-05
1.35384e-05
3.97642e-05
-4.12761e-05
-8.68613e-06
1.01981e-05
4.26793e-05
-4.38836e-05
-4.26772e-06
5.47203e-06
4.47891e-05
-4.52926e-05
1.50462e-06
-1.00117e-06
4.52946e-05
-4.47375e-05
8.67217e-06
-9.22922e-06
4.39386e-05
-4.34637e-05
1.82807e-05
-1.87554e-05
4.24266e-05
-3.8134e-05
3.04256e-05
-3.47033e-05
3.12873e-05
-2.76307e-05
3.10524e-05
-2.25848e-05
2.63774e-05
-2.21517e-05
2.51859e-05
-1.73782e-06
2.09208e-05
-2.09008e-05
1.35915e-05
-3.90152e-06
2.47632e-05
-2.90276e-05
5.79602e-06
-3.27441e-06
3.09353e-05
-3.11758e-05
4.72009e-06
-6.82897e-06
2.97686e-05
-2.60142e-05
8.78469e-06
-1.37846e-05
2.10142e-05
-1.55494e-05
7.27224e-06
-1.27411e-05
9.65836e-06
-3.24984e-06
-1.49479e-06
-5.25928e-06
-2.44478e-06
5.67739e-06
-1.10315e-05
4.89576e-06
-4.88455e-06
1.75278e-06
-1.06526e-05
1.37844e-05
-3.58871e-05
5.06955e-05
-1.48084e-05
5.21779e-06
-6.82688e-06
-3.11565e-05
3.27656e-05
1.02539e-05
-1.64295e-05
-2.3999e-05
3.01748e-05
2.43456e-05
-2.99124e-05
-2.49589e-05
3.05289e-05
3.18852e-05
-3.28784e-05
-2.39841e-05
2.49773e-05
3.4254e-05
-3.57804e-05
-1.84514e-05
1.99778e-05
3.73568e-05
-3.91605e-05
-1.53023e-05
1.7106e-05
4.13775e-05
-4.39961e-05
-1.21361e-05
1.47548e-05
4.68052e-05
-4.94521e-05
-7.26549e-06
9.91235e-06
5.14921e-05
-5.25592e-05
1.77652e-07
8.89512e-07
5.28603e-05
-5.43905e-05
9.07899e-06
-7.54823e-06
5.99482e-05
-4.52275e-05
1.36446e-05
-1.9693e-06
2.97589e-05
-3.59946e-05
2.09183e-05
-8.4694e-06
2.52294e-05
-8.5134e-06
5.3052e-06
-2.27807e-06
1.58874e-05
-3.52067e-05
-1.37836e-07
2.94835e-06
0.00012201
-0.000121271
6.29502e-06
-7.02135e-06
0.000118908
-0.000114893
1.08975e-05
-1.49001e-05
0.000109086
-0.000102967
1.91989e-05
-2.5272e-05
0.000101967
-4.89042e-05
2.18416e-05
-3.7328e-06
1.18837e-05
-1.16262e-05
2.3564e-06
-2.8633e-06
1.14407e-05
-1.10579e-05
1.89867e-06
-2.53085e-06
1.077e-05
-9.51386e-06
4.54496e-07
-2.04078e-06
5.98853e-05
-8.15931e-05
-1.22356e-05
8.97292e-06
-2.56703e-05
-6.66998e-08
-4.46759e-06
3.22228e-05
-3.72349e-05
-3.64536e-05
2.68902e-05
4.13674e-05
-4.36039e-05
-3.56562e-05
2.55976e-05
4.44238e-05
-4.41018e-05
-3.1233e-05
1.97942e-05
4.38238e-05
-4.41449e-05
-2.47185e-05
1.65773e-05
4.43571e-05
-4.30591e-05
-2.03186e-05
1.90205e-05
4.15836e-05
-4.07306e-05
-1.81605e-05
1.73075e-05
4.14166e-05
-4.3899e-05
-1.79083e-05
2.03906e-05
4.77588e-05
-5.19327e-05
-1.36833e-05
1.78572e-05
5.51028e-05
-5.7817e-05
-2.2876e-06
5.00175e-06
6.11158e-05
-6.08794e-05
4.92087e-06
-5.13515e-06
2.14842e-05
-3.5263e-06
-3.71006e-07
-1.53019e-06
3.52021e-06
-8.41551e-06
2.4515e-06
1.23152e-06
3.1829e-05
-3.43242e-05
6.45155e-06
-6.0316e-06
8.33695e-06
-1.34537e-05
-8.11598e-06
4.13309e-06
3.72754e-05
-7.34414e-05
8.68575e-07
3.69373e-06
6.54964e-05
-5.7369e-05
1.17292e-05
3.32926e-09
8.46845e-05
-9.37727e-05
2.7535e-05
-1.20829e-05
2.37436e-05
-1.96132e-05
1.67861e-06
-3.46827e-06
2.38088e-05
-8.9142e-05
1.53018e-06
-2.3156e-05
0.000110313
-6.62062e-05
5.19584e-06
-1.6654e-05
2.55099e-05
-1.87679e-05
9.71356e-08
-4.34327e-06
4.23476e-05
-0.000113276
-5.5451e-06
-3.66737e-06
-6.68082e-09
8.94094e-10
-2.21704e-09
2.44135e-07
-3.32841e-07
7.2441e-08
-7.53001e-10
3.71911e-07
-3.70046e-07
-1.17826e-08
8.75957e-10
3.57718e-07
-3.51786e-07
-8.98538e-09
6.69718e-10
3.49084e-07
-3.31032e-07
-3.60344e-08
4.33581e-09
3.53789e-07
-5.72919e-07
-3.34257e-07
1.14229e-08
8.15765e-07
4.8029e-07
-5.83397e-06
1.08559e-06
7.00044e-06
-5.21536e-05
-1.85591e-05
2.07491e-05
6.15409e-05
-6.96059e-05
-2.16652e-05
2.99875e-05
7.7571e-05
-7.9985e-05
-1.09916e-05
1.34238e-05
4.95417e-05
-8.7072e-06
1.30646e-05
-1.23165e-05
8.31155e-06
-5.67662e-06
4.14693e-06
-9.54976e-06
2.49908e-06
-1.90695e-07
-3.11739e-06
1.67202e-06
1.09217e-05
-4.54424e-05
-8.90285e-06
2.13173e-05
5.40887e-05
-4.94423e-05
-1.12437e-05
6.98897e-06
2.78302e-05
-3.22296e-07
-1.52315e-07
-3.06914e-07
-2.09381e-08
6.13749e-09
3.45779e-09
1.10651e-08
2.72736e-08
-4.97112e-07
4.54032e-07
5.97725e-09
1.0555e-06
-7.01916e-05
3.21945e-06
-2.31261e-07
0.000124747
-0.000130332
2.37509e-05
-1.82088e-05
0.000131079
-0.000130741
2.0834e-05
-2.11091e-05
0.000128812
-0.000125188
1.00992e-05
-1.36329e-05
0.00011599
-3.0279e-05
6.22385e-06
-8.37446e-06
-6.27879e-11
1.31991e-11
-1.25125e-12
1.28737e-10
-2.11999e-10
4.03608e-11
4.82474e-12
2.43261e-10
-2.02028e-10
-6.83711e-11
1.06012e-11
1.31723e-10
-1.26583e-10
-3.05535e-11
1.06022e-11
3.64721e-10
-1.87441e-09
-8.15114e-10
1.66492e-09
2.99445e-08
-4.19621e-06
-6.62178e-09
2.72544e-08
9.9208e-05
-0.000101978
-1.75736e-06
2.24083e-06
0.000102224
-0.000105416
-3.13243e-05
3.39848e-05
0.000111949
-0.000110607
-3.70678e-05
3.69641e-05
3.93658e-05
-2.7311e-05
-6.28765e-06
1.32073e-06
2.48498e-05
-3.58843e-05
9.98526e-06
-1.24273e-05
3.07698e-05
-8.41898e-07
7.0844e-06
-3.7251e-06
1.0563e-06
-1.04841e-06
2.32665e-09
-1.09543e-07
6.43539e-07
8.32247e-07
-4.91503e-06
-1.51526e-07
-2.73433e-06
6.47424e-07
2.36747e-06
-1.19439e-06
-4.46699e-08
2.41534e-08
2.88025e-08
-8.23075e-09
-1.38609e-08
8.79495e-09
-1.26463e-08
1.77104e-08
-5.85098e-09
2.86516e-09
-1.8525e-08
2.14808e-08
3.38457e-09
-2.27661e-08
2.40428e-09
1.62123e-08
7.02511e-07
-1.16781e-05
5.69581e-06
-3.55686e-08
8.06548e-05
-0.000105335
2.26234e-05
-1.54581e-05
0.000100165
-5.23352e-05
1.46122e-05
-2.35858e-05
2.98838e-05
-1.37829e-05
7.86703e-06
-5.83087e-06
-1.02278e-11
1.01021e-11
-1.29406e-13
2.10372e-12
-2.93105e-12
-6.78757e-12
7.14133e-12
3.56553e-12
-3.52634e-12
-8.26775e-12
8.67695e-12
3.53798e-12
-6.02953e-12
-4.9909e-12
6.92324e-12
7.21259e-12
-1.56063e-10
-6.96984e-10
7.67748e-10
7.0551e-09
-2.01131e-07
-9.34898e-08
2.27819e-07
5.7903e-05
-0.00011499
-1.17265e-05
2.85504e-05
0.000131891
-0.000140694
-4.31131e-05
5.21968e-05
5.95767e-05
-4.0478e-05
-1.29865e-05
-1.20076e-06
4.5426e-05
-4.92249e-05
-8.85649e-07
-1.95802e-06
4.85866e-05
-4.90943e-05
1.19356e-05
-1.10895e-05
4.81969e-05
-2.8369e-06
3.52045e-06
-8.61629e-06
2.59746e-06
-3.14209e-06
8.18919e-08
1.96309e-08
2.37081e-05
-2.13895e-05
7.0882e-06
-8.65732e-06
1.46706e-05
-3.87218e-07
2.00532e-07
-4.24506e-06
5.37371e-08
-3.1058e-08
9.23273e-09
-3.1854e-08
2.11649e-08
-1.20278e-08
-1.31506e-08
4.01358e-09
3.73705e-09
3.96359e-09
-1.78859e-08
1.01841e-08
-1.03738e-08
1.34382e-08
-1.88674e-08
1.57984e-08
-1.13437e-08
7.08791e-09
-1.64469e-08
2.05439e-08
1.2141e-08
-8.62825e-07
6.48591e-07
1.75179e-08
2.07872e-05
-3.12005e-05
2.47098e-05
-1.21355e-08
1.55764e-05
-1.21542e-07
1.20854e-05
-4.03197e-08
-1.00331e-11
9.91713e-12
1.14161e-13
7.34956e-13
-1.95619e-12
-7.68328e-12
8.87096e-12
4.40733e-11
-1.00888e-10
-1.44926e-11
2.03987e-10
1.69815e-11
-5.44279e-11
-9.45583e-12
4.11737e-11
1.609e-09
-5.91576e-08
-2.24636e-09
5.95153e-08
1.57514e-06
-3.61978e-05
-1.29025e-06
2.03718e-05
9.20511e-05
-0.000125841
-5.0377e-05
5.98938e-05
4.89505e-05
-3.66219e-06
-2.17278e-05
4.51748e-06
9.30646e-07
-1.91266e-06
3.4908e-07
3.62232e-08
4.19044e-07
-1.59717e-07
1.61001e-07
-2.69726e-09
2.76502e-06
-2.68811e-05
9.45678e-06
-7.79016e-09
4.1588e-05
-2.04425e-05
1.16346e-05
-2.03583e-08
2.91604e-06
-4.72912e-06
-2.13373e-08
4.64063e-09
2.19256e-05
-2.32127e-05
9.61005e-06
-7.60558e-06
2.2398e-05
-2.09548e-05
9.71694e-06
-1.06343e-05
1.43845e-05
-1.92562e-06
2.68609e-07
-7.09468e-06
1.06445e-07
-5.927e-08
6.71477e-09
-5.38404e-08
3.29898e-08
-2.48641e-08
-8.42424e-10
-7.28193e-09
-1.13382e-08
1.3098e-08
-8.90808e-09
1.88316e-09
-1.90587e-08
2.26666e-08
-2.08267e-08
1.80288e-08
-2.47661e-08
2.68641e-08
-1.31654e-08
1.08878e-08
-2.65028e-08
2.99529e-08
1.90392e-08
-2.32569e-08
-3.50135e-08
2.47271e-08
4.37763e-08
-1.74752e-08
-9.49704e-12
8.86835e-12
6.2868e-13
1.87025e-13
3.82799e-13
-9.95579e-12
9.38163e-12
9.6798e-12
-9.44772e-12
-2.49249e-10
2.32408e-10
2.31877e-09
-1.4427e-07
-1.7198e-09
1.43528e-07
6.67945e-06
-3.79644e-05
-3.02897e-06
4.31707e-05
7.9408e-05
-8.86775e-05
-6.39864e-05
7.25329e-05
5.05857e-05
-4.70362e-06
-3.90395e-05
3.39685e-06
2.26563e-07
-3.65606e-08
-2.22518e-07
3.45933e-08
2.58742e-08
-2.14187e-08
-1.28329e-08
8.68249e-09
2.18152e-08
-2.28048e-08
2.20289e-09
-1.2193e-09
2.29233e-08
-2.40127e-08
5.70823e-09
-3.98943e-09
2.69401e-08
-2.74231e-08
7.70972e-09
-7.03782e-09
2.50191e-08
-1.90603e-08
1.05482e-10
-6.89573e-09
3.66866e-08
-3.54139e-07
3.44282e-07
-1.91799e-08
3.22549e-06
-8.94012e-06
7.57609e-06
-2.25694e-07
1.59692e-05
-2.00142e-05
9.4144e-06
-5.35553e-06
1.98281e-05
-1.91198e-05
5.49275e-06
-6.12036e-06
1.49455e-05
-2.01424e-05
1.0863e-06
-6.83799e-06
1.97156e-05
-1.74305e-05
1.88771e-06
-4.01303e-06
5.45673e-08
-1.9612e-08
-3.73352e-08
1.52004e-09
1.35725e-08
-1.55126e-08
-6.52644e-09
8.04437e-09
3.6849e-08
-3.29779e-06
4.95695e-08
-2.04524e-06
5.63454e-06
-3.99842e-07
-4.26045e-08
-2.09019e-06
-7.66612e-12
5.4246e-12
2.24154e-12
-1.54221e-12
1.56364e-12
-9.61261e-12
9.59113e-12
-8.26182e-12
-9.0126e-08
-1.38682e-09
9.15205e-08
7.60703e-06
-5.26612e-05
-9.50351e-06
6.10222e-05
7.53595e-05
-7.41959e-05
-6.16649e-05
5.53847e-05
2.49647e-05
-1.8634e-06
-2.93619e-05
6.91495e-07
2.07392e-07
-2.64526e-07
-1.56815e-07
4.75079e-08
3.80703e-07
-4.14415e-07
-2.83515e-08
2.80355e-07
2.78529e-07
-6.84312e-08
-6.73437e-09
2.06009e-08
2.48252e-08
-2.124e-08
3.96692e-10
-2.03288e-08
1.43504e-08
-1.66715e-08
2.47064e-09
-1.53694e-10
1.72674e-08
-1.67511e-08
4.84039e-09
-5.09895e-09
1.37538e-08
-1.41261e-08
5.55031e-09
-5.02478e-09
1.8421e-08
-2.4584e-08
1.13194e-08
-7.00092e-09
2.12822e-08
-1.86254e-08
1.70234e-08
-1.04274e-08
2.76166e-08
-1.79169e-07
1.87249e-07
-2.65887e-08
1.8041e-06
-7.24888e-06
4.04332e-06
-2.75919e-07
1.24462e-05
-1.32473e-05
6.12417e-06
-5.19645e-06
1.33568e-05
-2.69131e-06
2.17109e-06
-1.31613e-07
6.39199e-06
-1.44263e-05
4.32459e-07
-8.12109e-07
1.33135e-05
-1.22475e-05
9.9519e-08
-2.35238e-07
1.21717e-05
-1.45131e-05
2.76216e-06
-1.27754e-10
1.19907e-05
-4.07036e-06
3.03127e-06
-2.34227e-09
-2.81167e-12
2.60794e-06
-1.28619e-07
-3.27938e-12
1.49958e-12
-9.23464e-12
1.10144e-11
1.34537e-06
-2.04942e-05
-4.76789e-06
6.02042e-05
4.35282e-05
-3.32486e-05
-7.08114e-05
3.38181e-05
3.97122e-06
-3.49343e-07
-3.81145e-06
1.88146e-07
3.90497e-08
-4.03538e-09
-3.6849e-08
1.97599e-09
2.01828e-09
-1.08983e-07
-4.10919e-08
1.70173e-08
2.57919e-07
-2.33515e-07
-2.9536e-07
4.40944e-11
1.52196e-07
-4.7554e-07
-2.59158e-09
8.37369e-12
1.1863e-06
-1.15928e-06
1.84953e-08
1.53982e-09
3.67318e-07
-3.08484e-08
1.05048e-09
-2.19783e-08
2.49349e-08
-4.18732e-08
7.30758e-09
8.59471e-09
1.49851e-08
-6.63695e-09
4.35498e-09
-1.14132e-08
1.43132e-08
-1.78974e-08
5.88894e-09
-3.40872e-09
1.78192e-08
-9.69284e-09
6.65632e-09
-5.90506e-09
1.96203e-09
1.13496e-10
1.75092e-08
-7.09423e-09
6.8191e-10
-5.30973e-08
6.9893e-08
-1.84358e-08
6.82092e-07
-3.1294e-07
3.42071e-06
-2.99819e-06
2.56963e-07
-1.50222e-07
-3.404e-07
1.33567e-07
1.14721e-08
-1.66885e-10
-1.12891e-08
1.92083e-10
2.71825e-10
-5.84862e-10
1.4714e-09
-1.25376e-09
1.91183e-09
-4.12182e-09
3.50755e-10
-2.50208e-09
5.97161e-09
-3.24835e-09
2.39719e-09
-1.01195e-08
-1.70671e-05
2.91756e-05
-1.50865e-05
2.06395e-05
-2.78443e-05
-4.75733e-05
5.8369e-05
2.49847e-05
-1.79026e-05
-5.5676e-05
2.84438e-05
1.83906e-06
-1.45521e-07
-1.96913e-06
2.44509e-07
4.74856e-09
1.45739e-10
-8.80473e-09
4.07737e-09
-2.73521e-10
3.70291e-10
-1.00756e-09
8.8746e-10
-4.21559e-10
4.38994e-10
-1.12374e-09
1.07511e-09
-2.10531e-10
-4.69692e-10
-1.21776e-09
1.54374e-09
1.47089e-08
-3.44391e-07
-6.58527e-09
4.25175e-08
1.06789e-06
-1.25248e-06
-1.68911e-07
4.00559e-07
2.19823e-07
-5.87409e-07
1.8409e-08
-3.09475e-07
1.26364e-06
-3.29256e-06
1.47781e-06
-5.04362e-06
3.27308e-06
-2.0126e-06
1.4632e-06
-3.13287e-06
3.72674e-08
-1.30065e-08
-1.41039e-10
-3.73349e-09
5.79131e-09
-5.33277e-09
4.97773e-09
-1.75695e-09
5.19689e-09
-6.37793e-09
3.57056e-09
6.43444e-10
2.06241e-09
-8.55426e-09
1.70899e-08
-1.17252e-08
1.12514e-06
-1.59259e-06
1.98396e-06
-6.04337e-07
9.7107e-07
-1.95685e-08
-3.12858e-08
4.07875e-07
7.0404e-10
-1.93427e-10
-4.08301e-11
2.52786e-11
8.63562e-11
-3.34105e-10
2.49184e-10
-3.46281e-10
1.09885e-08
-1.51347e-08
7.24618e-09
-6.22152e-09
1.64904e-08
-1.62624e-08
1.07076e-08
-1.05367e-08
-3.71892e-05
6.41397e-05
-1.36857e-05
1.5203e-05
-1.22403e-05
-6.14447e-05
3.66368e-05
1.60966e-06
-2.80426e-07
-2.43477e-06
1.08054e-06
2.49019e-08
-1.60377e-08
-7.77694e-08
7.75351e-08
2.50528e-07
-1.99802e-07
-3.54818e-09
3.89512e-07
5.8413e-10
-3.38328e-10
-9.26519e-10
6.60797e-10
1.19894e-09
-6.95243e-08
-9.89417e-10
6.92836e-08
4.24859e-08
-4.14291e-07
-1.52645e-08
1.20884e-06
1.05302e-06
-1.17803e-06
-7.45412e-07
1.21446e-06
4.72815e-07
-3.57487e-07
-3.69357e-07
3.13738e-08
1.73583e-06
-4.86541e-06
1.65473e-06
-5.77051e-06
4.69369e-06
-4.64522e-06
5.207e-06
-5.25377e-06
4.51379e-06
-4.35205e-06
3.19593e-06
-3.35267e-06
3.76444e-06
-1.16623e-08
6.61929e-07
-7.20742e-07
1.24528e-08
-1.35201e-08
4.50225e-10
4.16557e-10