/*--------------------------------*- C++ -*----------------------------------*\
| =========                 |                                                 |
| \\      /  F ield         | OpenFOAM: The Open Source CFD Toolbox           |
|  \\    /   O peration     | Version:  v1912                                 |
|   \\  /    A nd           | Website:  www.openfoam.com                      |
|    \\/     M anipulation  |                                                 |
\*---------------------------------------------------------------------------*/
FoamFile
{
    version     2.0;
    format      ascii;
    class       volScalarField;
    location    "0.85";
    object      alpha.water;
}
// * * * * * * * * * * * * * * * * * * * * * * * * * * * * * * * * * * * * * //

dimensions      [0 0 0 0 0 0 0];


internalField   nonuniform List<scalar> 
9072
(
1
1
1
1
1
1
1
1
1
1
0.999996
0.996216
0.968097
0.978922
1
1
0.999298
0.993618
0.998618
0.998931
0.999425
1
0.999998
1
1
1
1
1
1
1
1
1
1
0.999996
0.957896
0.958585
0.998695
1
1
1
0.999988
0.967211
0.859573
1
0.999944
0.999976
1
1
1
1
1
1
1
1
1
1
1
0.996994
0.993121
1
0.9999
1
1
0.856033
0.855791
0.978456
1
0.999999
0.999997
1
1
1
1
1
1
1
1
1
1
1
1
1
1
1
1
1
1
0.969889
1
1
1
1
1
1
1
1
1
1
1
1
1
1
1
1
1
1
1
1
1
1
1
1
1
1
1
1
1
1
0.999958
1
1
1
1
1
1
1
1
1
1
1
1
1
1
1
1
1
1
1
1
1
1
0.99825
0.99269
1
1
1
1
1
1
1
1
1
1
1
1
1
1
1
1
1
1
1
1
1
0.998912
0.97069
1
1
1
1
1
1
1
1
0.999998
0.999994
0.999991
1
1
0.999999
0.999998
1
1
1
0.987136
0.94116
0.998046
0.998046
0.99087
0.987004
0.991565
0.986757
0.983005
0.998109
0.997761
0.607017
0.516613
0.434376
0.597558
0.920526
0.920527
0.875906
0.69633
0.987136
0.985309
0.428172
0.316982
0.998036
0.995081
0.922373
0.998112
0.998112
0.998111
0.786316
0.181367
0.353058
0.880767
0.761247
0.389321
0.920487
0.858975
0.557066
0.987127
0.877651
0.0548316
0.288684
0.304164
0.679309
0.917975
0.998104
0.998112
0.998111
0.47308
0.435485
0.923461
0.815116
0.43751
0.717235
0.919826
0.884202
0.339084
0.986802
0.536877
0.0670893
0.0649488
0.0017351
0.106043
0.990444
0.555202
0.997325
0.998085
0.406255
0.387643
0.923461
0.0735257
0.0586409
0.151257
0.652867
0.865646
0.771247
0.9293
0.215509
0.05833
0.092584
0.00165907
0.00193486
0.700996
0.288315
0.314067
0.534445
0.469711
0.672821
0.906941
0.0586991
0.0586276
0.0586378
0.916226
0.419387
0.823004
0.875774
0.765385
0.61438
0.0874445
0.00165881
0.0264062
0.415569
0.485528
0.580918
0.446159
0.322288
0.962337
0.593842
0.0586286
0.0587331
0.0587345
0.916416
0.916416
0.822865
0.306715
0.546393
0.725427
0.42395
0.344961
0.950454
0.43742
0.251069
0.361906
0.273702
0.96257
0.956859
0.858363
0.439236
0.0586353
0.0586576
0.914884
0.60523
0.921093
0.810013
0.809544
0.720871
0.560851
0.845282
0.951855
0.951855
0.329726
0.103286
0.811213
0.96257
0.962588
0.890181
0.105076
0.218165
0.475266
0.85705
0.188235
0.903912
1
1
1
0.991333
0.981735
1
1
1
1
1
1
0.999999
0.999886
0.918097
0.620877
0.439003
0.654349
0.816729
0.81891
0.794469
0.819042
0.898849
1
1
1
0.999996
0.999994
1
1
1
1
1
1
0.999997
0.862757
0.263194
0.0951175
0.0985656
0.865455
0.865455
0.865257
0.65208
0.0896926
0.0896926
0.0903787
0.816742
0.10922
0.950816
0.951214
0.9424
0.963539
1
1
1
1
1
0.999794
0.161772
0.109974
0.548994
0.10787
0.624266
0.39937
0.581324
0.0949111
0.408182
0.619967
0.115319
0.641653
3.85259e-05
0.00013347
0.000113861
5.62722e-05
0.000129752
0.0051587
0.0347878
0.611833
0.99917
0.999905
0.374217
0.121977
0.192453
0.537229
0.552576
0.146506
0.000211921
0.00023194
0.188545
0.8565
0.856564
0.856455
0.470556
3.9933e-07
3.7096e-07
2.70983e-07
2.04207e-07
5.32067e-06
0.00411507
0.994056
0.996112
0.998426
0.218654
0.245716
0.136095
0.00696041
0.0159082
0.0158372
0.000203374
0.000202948
0.000203011
0.000210491
0.0067428
0.804744
0.702596
0.199623
6.03424e-08
6.20287e-08
6.51275e-08
8.32732e-08
3.75809e-07
0.000228552
0.916322
0.993996
0.193879
0.296826
0.300264
0.184186
0.00776334
0.148191
0.0185954
0.00020331
0.000202924
0.000202926
0.000202945
0.000203822
0.000428927
0.261229
0.177105
5.85646e-08
5.87631e-08
2.43323e-06
1.09695e-07
1.5489e-06
0.0669487
0.945146
0.0667662
0.00143096
0.00153028
0.0640414
0.217595
0.00263191
0.148235
0.148429
0.0252187
0.000205865
0.000202909
0.000206273
0.00020317
0.000204115
0.000205022
0.000242865
5.85569e-08
5.85657e-08
1.75809e-06
1.04815e-06
0.208842
0.71861
0.105765
0.000240215
0.000234723
0.000234653
0.00023472
0.000234906
0.000235822
0.000223275
0.0390353
0.154311
0.156567
0.113601
0.159142
0.000206236
0.000204518
0.0260607
0.0522386
5.85569e-08
5.8557e-08
6.10472e-08
0.271292
0.612839
0.0458937
0.000821554
0.00372221
0.0022077
0.000389647
0.000235344
0.00023513
0.000234241
0.000240825
0.000201441
0.000209962
0.0209831
0.159483
0.066004
0.104576
0.123931
0.123789
0.0608557
0.00664096
5.85569e-08
0.191957
0.387807
0.000469613
1.85895e-05
0.000384106
0.00400108
0.00434757
0.0180967
0.000235665
0.000238682
0.000237784
0.000237262
0.000193139
0.000205074
0.000231709
0.011412
0.00519644
1.32259e-06
1.57103e-06
1.51832e-05
5.97013e-05
0.109018
0.253654
0.228046
0.000407
1.28159e-05
1.16687e-05
1.16817e-05
1.32118e-05
0.00110858
0.0180967
0.00237539
0.0580789
0.0648473
0.000185272
0.000184542
0.000212319
0.000233893
0.0242831
0.0116044
5.63894e-07
3.73204e-06
0.000233518
0.000236298
0.154699
0.242178
0.000527484
0.000110992
0.00313694
1.16666e-05
1.16817e-05
0.00182419
0.0171573
0.00112645
0.0572286
0.0702997
0.0702886
0.0367317
0.000175611
0.00079085
0.0211502
0.00129531
0.00244478
3.80356e-08
1.17297e-05
0.000117864
6.34033e-06
0.169723
0.00210131
0.00167164
0.049383
0.0493752
0.0493337
0.0488856
0.000333213
9.65955e-06
3.82961e-05
0.0604454
0.0702762
0.00719244
0.000176811
0.000144871
0.0258387
0.0258387
1.63151e-06
0.00024211
6.36342e-09
1.53778e-08
7.82101e-05
1.87392e-10
0.136599
0.000405884
0.0106239
0.049383
0.00306383
0.00237769
1.138e-05
1.55251e-06
1.67776e-06
1.98616e-06
7.89077e-06
0.0641291
0.00753926
0.000330173
2.8986e-05
0.0228482
0.0130968
5.89514e-08
3.56595e-05
3.32405e-06
5.65866e-08
1.87714e-10
2.06674e-10
0.000285528
0.00017198
0.000350528
0.00838944
8.54656e-05
1.96979e-06
1.92717e-06
1.60619e-06
2.51235e-05
8.25686e-06
2.1453e-10
-4.45705e-10
0.0248104
0.014009
2.78602e-05
0.000649711
0.0157894
1.45058e-09
4.07482e-08
3.18932e-08
2.91017e-10
1.92706e-09
1.3767e-10
0.0135531
0.000139509
0.000103829
2.20372e-05
2.24919e-06
2.05047e-06
1.97731e-06
2.2925e-05
3.20022e-05
2.97353e-05
2.12195e-10
7.82905e-10
8.93706e-10
8.09763e-08
1.38601e-05
3.60338e-05
0.00894206
9.70222e-10
9.60331e-08
7.99922e-10
2.16387e-09
1.70656e-09
6.05737e-11
0.0246186
0.000149036
0.000500131
0.0017294
0.000300715
3.5378e-07
1.44737e-09
5.31174e-10
2.90855e-10
2.03936e-10
2.03617e-10
4.80528e-09
1.63329e-08
1.26751e-05
0.0368155
0.0272646
2.23156e-05
0.000131294
3.38406e-10
8.21421e-10
9.13638e-10
7.84048e-11
4.00028e-11
0.0116042
0.000175428
0.000272588
0.00094667
0.0018472
0.000347359
3.28663e-07
1.19402e-09
3.95746e-10
2.70048e-10
2.43247e-10
3.00536e-10
3.98116e-07
0.0381818
0.0672603
4.83051e-07
2.38397e-07
7.20405e-06
3.21578e-10
2.93421e-10
6.14603e-11
3.98511e-11
8.78742e-12
3.38725e-05
0.00463121
0.000390446
0.000536294
0.00120135
0.00177892
2.01069e-06
1.04193e-08
6.32004e-10
5.88725e-10
3.22519e-10
5.93513e-10
2.2284e-06
0.0577489
0.0355031
2.78475e-10
3.44434e-10
5.79527e-10
4.58339e-10
4.74499e-11
2.29379e-11
6.65319e-12
1.35188e-12
0.00206427
7.28031e-05
0.002465
0.00197854
0.00202932
0.00114039
2.54034e-06
1.95617e-08
7.29981e-10
5.00879e-10
2.28619e-10
4.25734e-09
0.000421156
0.0634839
8.83488e-09
1.4576e-10
2.91876e-10
2.60997e-10
4.25583e-11
1.18164e-11
2.7692e-12
6.73473e-13
1.20328e-13
0.0109961
6.695e-05
0.000222475
0.00202423
0.00190067
1.34123e-05
2.11859e-07
2.08115e-09
5.69179e-10
2.60115e-10
7.78886e-11
2.18493e-07
0.0366259
0.0483874
1.47833e-10
1.43887e-10
1.04345e-10
3.64175e-11
1.15724e-11
2.39307e-12
2.95605e-13
4.09637e-14
6.34382e-15
0.00235308
0.00350439
2.10471e-05
2.54128e-05
1.33175e-05
9.2212e-07
4.99226e-09
7.29632e-10
4.87041e-11
2.06022e-11
2.06046e-11
0.00233604
0.054356
8.14495e-08
1.41244e-10
1.66545e-10
1.02446e-10
2.8957e-11
7.5105e-12
1.17661e-12
5.93433e-14
2.03676e-15
2.15866e-16
0.00467959
0.00349311
3.38889e-06
1.31329e-06
4.78606e-07
7.62795e-09
6.2457e-11
2.00864e-05
0.0306546
2.38908e-09
1.60733e-06
0.0534187
0.00972217
-5.0579e-10
1.39351e-10
1.5464e-10
7.06019e-11
3.05674e-11
1.74009e-11
3.20052e-12
5.51962e-14
5.38614e-16
5.75625e-18
0.00356951
0.00253003
3.18778e-07
9.73583e-08
2.08494e-07
-1.54278e-08
0.00246133
0.0577251
0.0577251
0.05744
0.00834215
0.00497835
6.64135e-08
1.3823e-10
1.38591e-10
1.26173e-10
7.2199e-11
6.75191e-11
4.29309e-11
3.83678e-11
5.92429e-13
1.7415e-15
1.57204e-18
0.00399956
2.81815e-06
1.6839e-08
3.98601e-08
1.6523e-07
4.32885e-05
0.0569875
0.0474557
0.00113717
0.0020113
7.93512e-06
4.25329e-05
0.000167444
0.000678408
8.2714e-05
1.46729e-09
7.77653e-10
6.53745e-10
1.08452e-10
3.0495e-11
5.38672e-12
2.56251e-14
5.50744e-18
0.00675337
3.21503e-07
1.53985e-09
4.67261e-09
4.56514e-07
0.0062034
0.0563094
0.0119948
1.29857e-06
1.67799e-06
2.82149e-06
0.000244241
0.000694674
0.000525266
2.43296e-08
3.77666e-07
3.58827e-06
2.5814e-06
1.80687e-08
1.48313e-11
1.11225e-11
1.01274e-13
1.87247e-17
0.00917132
2.34285e-09
7.25024e-10
1.41964e-09
2.19198e-06
0.00127167
0.0117687
0.0335205
1.24635e-06
1.23155e-06
1.29036e-06
3.52602e-05
0.000118041
1.90784e-05
2.92174e-07
4.38525e-07
9.50171e-07
4.26517e-06
0.00130281
-1.25386e-11
7.62243e-12
1.28589e-13
2.57436e-17
0.0100993
1.7093e-09
6.93999e-10
3.0997e-10
3.25507e-09
1.29403e-06
4.41764e-06
0.000203309
0.00563026
1.22667e-06
1.22852e-06
1.26324e-06
0.000514503
0.0026294
0.0068093
0.00596653
0.00191664
8.03765e-06
0.00318886
3.49383e-10
1.56929e-13
3.74887e-14
6.75281e-18
0.0118158
1.48896e-09
3.12026e-10
2.00576e-10
2.79824e-10
4.50441e-08
1.513e-07
3.11749e-07
0.000156692
1.22665e-06
1.23164e-06
0.000739923
9.80391e-08
4.36285e-08
1.03545e-07
0.00670691
0.00684573
0.00547053
0.00162261
6.30121e-09
-4.57899e-13
3.17656e-14
2.13881e-18
0.0118166
6.59703e-05
2.41229e-05
6.0035e-10
1.18154e-06
2.63055e-08
9.477e-09
1.03379e-08
5.81634e-07
0.00018972
1.51283e-05
0.000225872
0.000432719
5.79837e-10
3.7309e-10
7.23292e-11
0.00118287
0.00267148
-2.06576e-10
-2.23062e-11
7.99655e-13
2.78965e-14
5.10681e-19
0.0118166
0.00850459
1.74768e-05
0.000698344
1.08704e-07
7.4509e-09
6.0665e-09
2.77583e-08
4.88448e-08
0.000703963
0.00036186
0.000968914
0.000213177
1.52253e-09
5.70695e-09
4.40782e-10
1.4001e-11
1.17962e-11
1.06746e-11
9.73639e-12
1.01886e-12
5.37259e-16
1.51903e-23
0.00466254
0.000196292
1.41281e-05
0.000521678
0.000454215
1.91381e-08
5.84389e-09
8.7029e-07
0.000563924
0.00114369
0.000125566
0.000285202
5.58832e-08
2.49942e-10
1.88598e-10
1.2826e-10
6.30746e-11
1.98158e-11
5.91288e-12
7.10869e-13
7.46646e-15
3.86104e-21
2.08214e-25
0.00744165
4.5021e-07
6.05526e-06
1.34487e-05
0.000312243
1.32545e-08
5.76582e-09
1.39214e-08
0.00543444
0.000270577
0.000583592
2.0789e-07
4.17164e-09
1.06423e-10
6.70031e-11
1.93227e-11
9.54013e-12
2.02941e-12
1.76896e-13
1.11276e-14
4.46884e-17
1.75384e-24
1.35413e-26
0.00745942
3.50327e-07
5.05568e-07
2.40483e-06
0.00121831
1.99322e-07
9.1712e-08
1.31067e-08
0.00554262
6.73849e-05
0.000825036
4.50176e-07
3.29344e-07
4.46218e-10
2.9426e-11
7.61229e-12
2.09666e-12
4.1311e-13
7.7737e-15
7.57877e-17
4.50976e-20
7.25749e-27
4.39886e-27
0.00745947
3.34156e-07
5.50021e-07
5.70347e-07
0.00122212
0.00101986
3.22076e-07
0.000463224
0.00440412
0.000272037
0.000721476
1.69561e-05
0.00143711
3.77292e-07
5.91801e-11
6.69072e-12
4.00701e-13
3.50362e-14
3.77613e-16
5.12312e-19
3.71255e-22
1.02693e-28
3.67335e-30
0.000587818
3.23817e-07
6.07518e-05
5.88347e-07
0.000924628
0.000106405
1.54179e-06
0.00567269
0.000300837
0.000813639
1.66392e-05
0.00126778
0.00187219
3.17566e-07
4.83779e-10
1.00689e-12
4.08687e-14
1.76028e-15
1.11293e-17
1.09368e-20
1.55879e-25
1.23737e-30
-2.50356e-49
0.0103128
3.1754e-07
8.71433e-05
0.00213423
0.000117333
0.000112143
5.33623e-06
0.00585779
0.00015286
0.000317785
0.00188344
0.00209103
0.000409312
1.15735e-07
2.35903e-10
6.5927e-13
1.07429e-15
6.74428e-17
2.5335e-19
1.7722e-22
8.08985e-28
2.94666e-32
-4.64976e-38
0.0104027
3.1754e-07
3.47726e-07
0.00214248
0.000690702
0.00214661
0.000108855
0.0058746
0.000713775
8.58756e-05
0.000115098
0.000165427
1.97556e-08
3.79153e-11
3.75684e-12
9.94815e-14
2.49281e-16
1.95406e-18
3.67328e-21
1.70241e-24
6.83625e-30
3.43008e-34
-1.06643e-35
0.00220724
4.09833e-07
4.76742e-07
0.00165706
0.00214238
0.00215441
8.72127e-05
0.0058746
0.000447632
3.59634e-07
1.39969e-08
5.00472e-09
5.59612e-11
3.63845e-11
1.53609e-12
2.9462e-15
1.35347e-17
3.87267e-20
4.09619e-23
6.00635e-27
5.53627e-32
2.13312e-36
-2.27438e-34
6.34309e-07
0.000359723
4.80667e-07
8.2708e-06
0.00215135
0.00215441
0.00194107
0.00506622
2.44964e-06
2.00262e-08
5.24705e-10
4.97066e-11
3.52611e-11
4.1826e-12
2.39707e-14
8.80196e-17
3.44142e-19
5.51903e-22
3.12324e-25
3.46058e-30
2.52883e-34
-2.00094e-41
-1.32155e-34
1.83498e-11
0.000967385
6.07356e-07
8.45619e-07
1.57957e-05
0.000218344
8.7043e-06
5.85499e-06
2.24106e-06
2.05338e-09
5.23773e-11
1.32335e-11
1.6345e-12
4.15196e-14
3.46394e-16
1.8537e-18
4.96708e-21
5.33959e-24
1.59659e-27
1.53076e-32
6.71756e-37
-1.6223e-43
-2.11087e-35
0
0.00245181
9.41495e-07
1.09272e-06
0.000476484
0.000467877
1.26763e-07
4.49819e-08
1.84603e-09
1.11198e-10
3.05448e-11
1.36315e-12
2.4311e-14
5.50344e-16
6.05654e-18
2.48262e-20
4.72571e-23
3.26713e-26
3.28659e-30
1.77118e-38
1.37439e-44
-1.18705e-45
-6.01068e-37
1
1
0.987838
0.889955
0.305227
0.30548
0.836037
0.97707
0.866795
0.717141
0.221651
0.541734
0.215722
0.217407
0.586929
0.602333
0.604872
0.606532
0.56638
0.23877
0.00038307
0.00038596
0.0013417
0.00075273
0.000311029
0.000389239
0.0346805
0.120873
0.115452
0.138708
0.102271
0.000103657
1.0975e-05
1.39519e-05
0.00027719
0.00115621
2.39125e-05
0.00109653
0.000976236
9.01114e-07
0.000234251
2.08912e-09
3.14195e-09
3.17047e-06
2.77055e-06
2.17813e-08
1.09256e-10
4.91914e-07
1.87392e-10
2.03898e-10
3.19969e-10
3.60898e-10
3.03635e-10
2.9213e-10
2.31364e-10
2.54576e-10
8.04154e-11
4.45067e-11
2.30424e-11
1.63748e-11
1.62676e-11
7.70778e-12
3.77925e-12
2.0674e-12
6.09333e-12
2.46545e-12
9.95329e-13
4.18994e-13
1.44001e-12
4.95005e-13
1.78242e-13
6.45424e-14
2.0341e-13
6.45616e-14
2.081e-14
6.79267e-15
1.59047e-14
5.17345e-15
1.62089e-15
5.02639e-16
7.4472e-16
2.56494e-16
8.47912e-17
2.73766e-17
2.55358e-17
9.0243e-18
3.40347e-18
2.0275e-18
8.03098e-19
3.20178e-19
2.73728e-19
6.22003e-19
2.90929e-20
2.5838e-20
2.82544e-19
2.8993e-18
5.82662e-21
6.62084e-21
6.36818e-19
1.87966e-17
3.9298e-21
3.28139e-21
5.27423e-19
4.99743e-17
3.10236e-21
1.65019e-21
1.82223e-19
5.15529e-17
2.19274e-21
8.22647e-22
3.82239e-20
3.2005e-17
9.80471e-22
2.92296e-22
5.8214e-21
1.51513e-17
9.3499e-23
4.61477e-23
1.26951e-21
7.79681e-18
1.90773e-24
1.13974e-24
2.86024e-22
4.82605e-18
1.03147e-24
2.55239e-26
5.34307e-23
3.28634e-18
1.1902e-26
1.36877e-27
9.67453e-23
7.38271e-18
1.9365e-32
3.92884e-29
3.30062e-24
3.10832e-19
0
3.39375e-44
1.74774e-25
2.70323e-20
-2.32215e-32
-7.05535e-31
0
1.00315e-21
-5.69123e-32
-8.1299e-31
-4.08645e-29
6.14175e-23
-6.17829e-32
-7.21969e-31
-3.52165e-29
7.57431e-23
-3.17812e-32
-5.01525e-31
-2.11168e-29
4.13076e-23
-9.34225e-33
-2.34547e-31
-7.14175e-30
3.03728e-24
-1.28322e-33
-5.24829e-32
-8.78792e-31
2.79592e-26
-3.63813e-35
-2.17138e-33
-7.65886e-33
-1.94718e-30
0.803891
0.669718
0.0934774
0.161784
0.00542152
0.0673553
0.913521
0.603021
0.103033
0.894668
0.96257
0.96258
0.485853
0.114199
0.241838
0.44576
0.299233
0.91311
0.730335
0.977527
0.754808
0.0750443
0.00536706
0.00536706
0.00537674
0.675005
0.186265
0.114081
0.962204
0.96257
0.94417
0.00379008
0.515388
0.454618
0.769629
0.83913
0.582321
0.861573
0.714937
0.983472
0.984511
0.981999
0.781134
0.727756
0.630717
0.106962
0.838918
0.315456
0.962369
0.157233
0.00305425
0.00278221
0.52567
0.525815
0.356154
0.43053
0.294494
0.409798
0.0100721
0.945059
0.984518
0.812115
0.30063
0.111365
0.186135
0.814932
0.00855213
0.401424
0.00353006
0.00292195
0.00273674
0.00181817
0.109648
0.0917734
0.0054925
0.380092
0.0721058
0.053563
0.0252549
0.968291
0.949486
0.426212
0.550364
0.867153
0.081175
0.0017525
0.0396643
0.259823
0.252994
0.00181178
0.00181178
0.135822
0.0112912
0.0067127
0.00520808
0.000561593
0.000402832
0.000967343
0.00103397
0.234968
0.559982
0.190914
0.00532698
0.00495879
0.00604616
0.00339027
0.0390036
0.25811
0.0774606
0.144643
0.0680522
0.000646799
0.00853637
0.00629654
0.11329
9.84963e-05
0.0029395
0.00128098
0.00331173
0.00328117
0.00327751
0.004196
0.0013039
2.83413e-08
0.00523585
0.000885811
4.009e-05
0.182036
0.0553179
4.71802e-05
0.000212895
0.000288817
0.00961566
9.43617e-05
9.28347e-05
8.97167e-05
8.97108e-05
0.00010454
0.00443964
0.000816719
0.000110101
3.41124e-08
3.30479e-08
0.00539189
0.00184961
3.81528e-05
3.11302e-05
3.43309e-06
7.65145e-06
0.000162687
0.00133014
0.00229964
0.0011542
8.97958e-05
8.97235e-05
0.000129193
0.00113047
2.13571e-08
2.14608e-08
2.15441e-08
3.74982e-05
9.42109e-06
0.00483349
0.000592779
5.33499e-05
5.35605e-05
2.97809e-06
2.37306e-06
6.00941e-07
8.84734e-07
0.0924934
2.16219e-06
0.00125952
0.00125941
0.00125761
2.13562e-08
2.13562e-08
2.31123e-08
2.15865e-08
2.37771e-05
0.00349774
0.00207862
7.61034e-05
1.11215e-05
8.02971e-07
1.85841e-05
0.000219835
6.00585e-07
5.97113e-07
0.00032469
5.42037e-05
5.96675e-05
5.18792e-06
3.135e-06
2.14235e-08
3.53009e-08
3.06026e-08
2.17007e-08
3.38195e-08
0.00310488
0.00163925
0.000205563
0.000222732
7.66784e-07
6.92826e-06
0.000761994
0.000226328
5.93508e-07
0.00322546
4.78912e-08
1.83286e-05
5.09598e-05
2.5523e-05
2.32587e-08
1.4336e-08
4.77101e-08
2.31288e-08
3.45013e-07
0.00269491
5.43466e-05
0.000252725
1.38657e-06
7.66784e-07
1.40891e-06
0.000753827
0.0001236
7.80725e-07
0.000755494
3.97537e-10
2.34331e-10
8.16969e-11
8.26858e-11
6.29233e-08
1.76802e-09
1.8575e-09
9.60975e-07
8.82388e-06
0.00259011
0.000341431
0.00031284
0.000257548
0.00060855
0.000606803
0.000115456
4.15318e-06
1.02414e-05
4.94646e-06
3.84454e-10
3.49782e-10
8.61622e-11
6.20155e-11
3.86262e-10
5.00438e-09
3.18106e-09
2.94745e-08
0.000296974
0.000846533
0.000128754
0.000155681
2.66311e-05
1.63313e-05
1.98874e-05
0.0028576
0.0038655
1.04744e-05
0.0005017
1.43082e-11
1.44074e-11
5.80282e-12
4.02071e-12
5.2472e-12
2.7908e-08
3.24813e-08
2.31889e-09
0.000173708
0.000370954
0.00138703
0.000887379
0.000223246
0.00166651
0.00169481
0.00399602
0.00420393
6.2356e-05
0.00060843
1.33129e-12
1.03753e-12
7.17365e-13
1.53659e-12
2.14218e-11
2.24152e-11
2.78932e-08
2.03282e-09
9.13528e-10
0.000315091
0.000200047
0.000183069
0.000802188
3.82154e-05
3.81612e-05
3.81998e-05
0.00329694
0.000116644
0.000307931
1.83803e-13
9.88839e-14
6.45895e-14
7.50122e-14
2.25305e-11
1.01773e-10
8.34047e-11
4.46329e-10
3.25969e-08
3.28889e-07
0.000133972
0.000201442
0.000183025
9.60305e-05
3.79713e-05
0.000121916
6.71531e-05
0.000262441
0.00204865
2.00018e-14
5.52841e-15
3.77275e-15
2.54755e-15
6.11596e-13
4.35984e-11
8.17422e-11
5.66791e-11
2.04159e-07
2.72452e-10
2.72452e-10
6.41168e-05
0.000233863
3.98741e-05
3.79126e-05
3.79126e-05
6.83947e-05
0.00121503
0.00440058
1.7066e-15
2.73134e-16
5.19573e-16
1.92766e-15
3.58443e-14
4.06152e-12
2.80075e-11
1.65009e-09
5.40929e-09
3.11021e-08
2.80895e-10
0.000165579
0.000151069
0.00249654
3.95636e-05
7.26855e-05
0.00025988
0.000239258
0.00142126
1.11183e-16
1.21744e-17
3.84205e-16
5.967e-15
1.41228e-13
6.60727e-12
1.02827e-10
3.43162e-10
2.46339e-10
2.37118e-10
3.24028e-05
7.90337e-05
0.000233889
0.00343663
0.000975764
0.000135721
0.000508885
0.00110989
0.000812374
7.66368e-18
4.14764e-18
3.25879e-16
1.33521e-14
1.86795e-12
4.60898e-11
1.36838e-10
3.92063e-10
5.76204e-10
2.91399e-10
3.79809e-06
5.31641e-10
9.92477e-05
0.00135827
0.00303548
0.000646253
0.000270153
0.00184817
0.000340867
3.8819e-18
3.32326e-17
1.07914e-15
2.7825e-13
2.53181e-11
9.47564e-11
1.45493e-10
4.79543e-10
5.0524e-10
3.69404e-10
9.68311e-10
5.31641e-10
9.99241e-06
0.00115431
0.000125764
0.000312937
0.000340987
0.000109345
0.00172441
3.89844e-17
6.78812e-16
2.11941e-14
4.19912e-12
4.7496e-11
1.60329e-10
5.85999e-08
9.08655e-06
6.22786e-07
6.88166e-10
4.18518e-06
3.96612e-07
0.000423418
0.00299431
0.000215129
0.000549781
0.000442143
0.00161411
0.00177935
3.95524e-16
1.14393e-14
2.39052e-13
8.4416e-12
3.72507e-11
2.63498e-06
3.46642e-05
3.46642e-05
3.46233e-05
1.26191e-05
2.6998e-06
3.93268e-06
0.000731342
0.00221591
0.000260074
0.000440266
0.000100918
0.00196343
3.01287e-05
4.20245e-15
2.24553e-13
1.36116e-12
4.46793e-12
1.80974e-07
3.46402e-05
3.46541e-05
2.18158e-05
1.24291e-05
2.94528e-06
3.08426e-07
3.41955e-06
1.7671e-06
0.00276673
0.000275375
0.00089657
0.000496874
0.000249991
3.18076e-05
2.2728e-14
2.57607e-12
6.93776e-12
2.14038e-11
1.46413e-05
3.43917e-05
2.01127e-06
2.72255e-06
0.00106324
0.000873141
4.56834e-07
3.0814e-07
2.26306e-06
2.3201e-07
0.00233601
0.000802769
0.000216144
4.81069e-05
3.18336e-05
4.0805e-14
1.24955e-11
3.2162e-11
1.46878e-09
1.09196e-06
1.78866e-06
2.15e-06
0.00167423
0.00169183
0.00168909
0.00140632
3.71468e-07
2.14663e-07
2.14622e-07
2.31925e-07
0.000324028
0.00136433
0.00130971
2.85638e-05
4.08742e-14
3.05312e-11
5.60567e-11
5.63749e-08
1.72367e-05
2.11821e-06
0.000436225
0.00166199
9.17523e-06
5.19162e-05
0.00166601
0.00154078
3.50063e-07
3.15815e-06
1.88656e-05
1.06124e-05
1.45763e-06
1.71781e-06
3.59419e-05
3.45446e-14
4.57249e-11
1.22713e-10
6.64484e-09
0.00162518
0.00168058
1.32859e-05
2.09061e-06
9.88287e-05
6.52479e-05
8.31408e-08
0.00164336
0.00150528
9.1189e-06
1.19382e-05
1.09609e-05
0.000162185
9.7915e-05
0.000879391
3.34063e-14
4.83233e-11
1.71153e-10
7.33704e-10
0.000321797
0.00233757
2.10409e-06
2.07114e-06
1.57044e-05
0.0001382
1.06438e-08
4.42091e-09
0.0010398
0.00146074
0.000452049
0.000304788
0.000533821
0.000218463
0.000963723
5.44104e-14
3.46514e-11
1.03482e-10
3.70862e-08
0.000112141
0.00168246
0.00205734
1.1056e-05
1.80171e-06
3.0121e-07
9.37525e-07
1.29287e-09
1.95064e-11
0.000160277
0.00127807
0.00125569
0.000549417
0.000949704
0.000424851
1.06184e-13
2.15662e-12
2.03066e-09
0.000270916
0.000346946
0.000227974
0.00102041
0.000140743
2.91886e-06
5.86341e-05
1.85746e-09
3.38931e-08
1.09916e-11
3.8212e-12
1.20364e-12
1.37892e-12
3.34391e-09
2.64422e-09
2.1931e-05
8.02643e-14
2.66981e-12
7.22535e-06
0.000346627
3.05102e-06
3.04228e-06
7.83762e-06
9.21921e-06
5.75067e-05
2.25795e-05
1.34372e-09
1.46256e-08
1.46672e-10
4.9776e-11
1.20288e-12
1.20753e-12
5.34228e-12
1.77676e-06
1.74739e-05
2.02374e-13
1.71664e-12
1.33414e-07
6.40145e-05
3.91077e-06
2.75421e-05
3.28746e-05
2.29109e-05
2.94673e-07
4.23679e-11
2.63394e-09
1.57667e-11
5.41267e-11
3.88853e-11
6.32397e-13
1.39633e-12
2.49268e-10
-1.05852e-13
-8.75827e-14
1.88655e-13
1.52156e-10
2.56962e-10
9.89442e-09
3.31723e-05
1.26626e-05
5.5017e-10
1.54623e-09
1.82974e-14
2.6382e-10
2.27145e-09
7.24872e-12
2.61897e-13
7.97951e-13
2.60829e-14
6.89582e-14
1.62025e-15
-1.09758e-13
-8.17711e-14
1.51232e-13
5.6094e-13
1.81271e-09
2.51017e-08
2.64755e-05
1.06529e-09
9.67436e-10
4.63251e-09
5.51339e-14
8.11112e-12
0
3.71025e-13
2.58598e-15
7.86792e-15
1.52788e-15
-6.32823e-17
-5.22387e-15
-4.22091e-14
-3.18135e-14
4.67508e-14
1.0669e-13
1.99952e-19
5.91997e-07
2.14486e-07
1.54184e-08
2.98519e-07
1.58504e-10
1.29662e-14
5.64827e-15
-7.37726e-20
2.05862e-18
2.0418e-17
3.22158e-17
6.94782e-17
-4.98929e-17
-1.00776e-15
-9.74439e-15
-7.23816e-15
3.93632e-15
7.83922e-15
6.90559e-18
-7.11361e-16
3.60682e-05
0.000117129
0.00012778
2.88372e-05
5.88523e-12
2.53465e-17
-2.36786e-20
3.54406e-22
9.92065e-20
1.70613e-19
6.18275e-19
-3.71552e-18
-9.41924e-17
-1.30147e-15
-9.77164e-16
9.90817e-17
2.07302e-16
7.25395e-19
-1.38868e-15
-1.83682e-15
8.95038e-06
0.000127735
2.4788e-05
4.10853e-13
2.62573e-17
-2.90009e-21
-2.82229e-23
1.0024e-22
2.98045e-22
1.25744e-21
-1.05151e-19
-4.13535e-18
-8.85083e-17
-7.14907e-17
9.54209e-19
1.26517e-18
-2.87849e-19
-8.96807e-16
-5.56953e-15
1.16133e-10
6.40181e-15
-5.91045e-16
-4.17075e-17
-1.90191e-22
-1.01508e-22
-2.76116e-24
-6.17077e-25
2.9049e-26
-4.78282e-24
-9.2689e-22
-6.30079e-20
-2.29546e-18
-2.17949e-18
4.33726e-21
1.42795e-22
-7.94415e-20
-2.39876e-16
-2.21546e-15
3.92063e-10
-2.76715e-15
-9.96455e-16
-1.08098e-17
-3.6747e-21
-1.09263e-27
-1.36525e-26
-1.30807e-26
-4.3831e-29
-4.2387e-27
-8.98107e-25
-1.26475e-22
-9.29317e-21
-1.16287e-20
-3.44738e-28
-5.71586e-28
-1.14393e-21
-1.03323e-17
-1.31866e-16
1.26565e-10
-4.47123e-15
-9.27886e-17
-2.88949e-19
-5.8572e-23
-4.06094e-32
-3.96454e-33
-8.43206e-34
-8.86412e-35
-4.93761e-32
-1.4397e-29
-1.94805e-27
-1.02607e-25
-6.95803e-27
1
1
1
1
1
1
1
1
1
1
0.999635
0.981962
0.968097
1
1
0.999999
0.994898
0.99362
0.999479
0.995536
1
0.999999
0.999999
1
1
1
1
1
1
1
1
1
1
0.983119
0.95789
0.985875
1
1
1
1
0.999977
0.85891
0.972282
1
0.999825
1
1
1
1
1
1
1
1
1
1
1
0.999727
0.993416
0.998275
0.999981
1
1
0.967943
0.855794
0.855794
0.99963
1
0.999907
1
1
1
1
1
1
1
1
1
1
1
1
1
1
1
1
1
1
0.983215
1
1
1
1
0.999998
1
1
1
1
1
1
1
1
1
1
1
1
1
1
1
1
1
1
1
1
1
1
0.999998
1
1
0.999986
1
1
1
1
1
1
1
1
1
1
1
1
1
1
1
1
1
1
1
0.999999
1
1
1
0.985261
1
1
1
1
1
1
1
1
1
1
1
1
1
1
1
1
1
1
1
1
1
1
0.976913
0.999593
1
1
1
1
1
1
1
0.999999
0.999996
0.999988
0.999998
1
1
0.999998
1
1
1
1
0.938955
0.998046
0.998046
0.998023
0.98701
0.988256
0.990784
0.982443
0.997704
0.998109
0.848153
0.548067
0.482274
0.465559
0.897962
0.920527
0.920527
0.772474
0.69633
0.962645
0.954375
0.212968
0.915744
0.998033
0.982449
0.998112
0.998112
0.998112
0.998088
0.199166
0.181367
0.756498
0.854149
0.300587
0.888388
0.920198
0.653608
0.710139
0.987127
0.112908
0.288565
0.26247
0.35796
0.532193
0.998095
0.998112
0.998112
0.980356
0.183179
0.81193
0.922809
0.407638
0.674603
0.841425
0.919931
0.356508
0.375175
0.943269
0.0582401
0.205576
0.00832877
0.00239664
0.751875
0.715062
0.866175
0.998108
0.905494
0.457845
0.662053
0.598238
0.0587386
0.0587355
0.181394
0.918776
0.335641
0.937266
0.962913
0.0580831
0.283337
0.00167096
0.00167096
0.235552
0.56044
0.28909
0.525187
0.46521
0.396595
0.960034
0.173595
0.0586294
0.0586294
0.509248
0.916382
0.335331
0.937264
0.667185
0.719223
0.448085
0.00165813
0.0016586
0.19117
0.758608
0.307322
0.58086
0.306511
0.845796
0.957055
0.746253
0.0586281
0.0648503
0.691275
0.916475
0.337239
0.937474
0.503268
0.796386
0.503435
0.340009
0.738117
0.951528
0.774657
0.122679
0.319353
0.711573
0.96257
0.779737
0.831039
0.0586286
0.0586388
0.144436
0.916535
0.475352
0.937776
0.8108
0.767324
0.641596
0.672182
0.951622
0.951855
0.944652
0.103148
0.187768
0.96257
0.962581
0.962547
0.228544
0.101796
0.476164
0.179136
0.914319
0.764623
0.937771
1
1
1
0.970392
1
1
1
1
1
1
1
0.999983
0.982438
0.813015
0.464187
0.515494
0.765582
0.831834
0.800432
0.792871
0.842499
0.976633
1
1
1
0.99996
0.999999
1
1
1
1
1
1
0.999933
0.385865
0.350465
0.0878592
0.637018
0.865459
0.865415
0.86423
0.171661
0.0896102
0.0898417
0.357271
0.622492
0.872861
0.960158
0.942012
0.950073
0.986349
1
1
1
1
0.999993
0.730334
0.106193
0.421171
0.183295
0.161735
0.7047
0.370867
0.351482
0.0985161
0.699408
0.208907
0.185262
0.853024
0.000128857
0.000139291
8.21169e-05
4.81849e-05
0.00044583
0.0146328
0.0847375
0.999153
0.999996
0.914433
0.123102
0.192671
0.179654
0.552576
0.530941
0.0163044
0.000209519
0.000676274
0.777821
0.856564
0.856564
0.853685
0.216445
4.46723e-07
3.4717e-07
2.0776e-07
1.36048e-06
5.77031e-05
0.477472
0.995357
0.997868
0.649858
0.221696
0.288453
0.00700896
0.00797918
0.0340824
0.000210184
0.000203021
0.000202948
0.000204227
0.000226878
0.387102
0.855908
0.233868
0.445692
6.03397e-08
6.27557e-08
7.4345e-08
9.58905e-08
8.66343e-06
0.201253
0.994775
0.649591
0.200511
0.300264
0.299661
0.00700896
0.0957381
0.147132
0.000207911
0.000202927
0.000202926
0.000202928
0.000203008
0.000211662
0.0855794
0.276621
0.000414408
5.86041e-08
3.31096e-07
1.90555e-06
1.48289e-07
5.34281e-05
0.756068
0.75768
0.000349898
0.0118432
0.000234789
0.237242
0.0220956
0.108192
0.148235
0.146453
0.00192026
0.000203348
0.000202811
0.000203008
0.000203498
0.000204902
0.000215648
0.000308784
5.85577e-08
5.80027e-07
1.71175e-06
4.9375e-05
0.652483
0.710804
0.000373071
0.00023508
0.000234653
0.000234653
0.000235089
0.000235304
0.000226233
0.000217696
0.131979
0.154767
0.132614
0.159402
0.0542968
0.000205593
0.000205305
0.0909233
0.0062173
5.85569e-08
5.8576e-08
6.01134e-05
0.597759
0.26891
0.000205027
0.00276362
0.00403422
0.000651859
0.00035619
0.00023521
0.000234442
0.000253114
0.000206617
0.000205765
0.000220416
0.135828
0.159402
0.0072368
0.123931
0.123931
0.113596
0.0115505
5.85569e-08
0.0222174
0.383398
0.0893696
5.4076e-05
1.2733e-05
0.00312478
0.0032445
0.0156043
0.0149449
0.00023552
0.00024653
0.000255326
0.000212698
0.000195667
0.000214041
0.0069726
0.00536571
0.000915228
1.57856e-06
1.89717e-06
5.08497e-05
2.64677e-05
0.254876
0.253784
0.0372133
3.55948e-05
1.17687e-05
1.16585e-05
1.17438e-05
1.45848e-05
0.0151688
0.0114488
0.0061971
0.0702951
0.00637974
0.000188959
0.000218977
0.000213788
0.00421325
0.0242966
4.01185e-07
3.23893e-06
9.05652e-05
0.000236395
0.000235486
0.255166
0.0217542
0.000164367
3.56974e-05
0.00159135
1.16585e-05
0.00172178
0.017132
0.0130133
0.00473344
0.0702988
0.0702988
0.0702171
0.000175636
0.000176997
0.013924
0.00715794
0.00335004
2.23621e-08
5.57114e-08
0.000111221
8.67848e-05
2.93544e-06
0.194652
0.00250524
0.0211545
0.049386
0.0493644
0.0491708
0.0296899
1.26049e-05
6.98111e-06
0.00748982
0.070294
0.0647601
0.000176811
0.000176251
0.00676088
0.0258444
0.0176298
5.1852e-05
3.58258e-05
3.39611e-09
1.72814e-05
1.56145e-05
1.87079e-10
0.00115988
0.000877474
0.0468594
0.0445144
0.00210755
1.90503e-05
5.36647e-06
1.4368e-06
1.998e-06
1.05371e-06
0.00975297
0.0619249
0.00194595
0.000701115
0.00222705
0.0257726
4.23989e-08
8.21562e-06
5.43595e-05
7.14232e-10
5.18792e-08
1.87539e-10
2.68114e-10
0.000357837
0.000401919
0.00362936
0.00572901
3.32973e-06
1.85304e-06
2.03352e-06
9.64415e-06
2.72334e-05
1.76802e-07