/*--------------------------------*- C++ -*----------------------------------*\
| =========                 |                                                 |
| \\      /  F ield         | OpenFOAM: The Open Source CFD Toolbox           |
|  \\    /   O peration     | Version:  v1912                                 |
|   \\  /    A nd           | Website:  www.openfoam.com                      |
|    \\/     M anipulation  |                                                 |
\*---------------------------------------------------------------------------*/
FoamFile
{
    version     2.0;
    format      ascii;
    class       volScalarField;
    location    "0.85";
    object      p;
}
// * * * * * * * * * * * * * * * * * * * * * * * * * * * * * * * * * * * * * //

dimensions      [1 -1 -2 0 0 0 0];


internalField   nonuniform List<scalar> 
9072
(
1277.38
1297.85
1280.11
1258.02
1236.76
1217.86
1197.7
1174.43
1147.31
1116.43
1081.33
1039.13
992.461
955.263
916.496
877.607
834.868
778.956
768.914
752.846
772.036
772.556
772.582
1217.7
1239.3
1220.79
1197.56
1177.24
1159.11
1139.15
1115.8
1088.75
1057.92
1022.95
982.731
936.299
894.045
853.976
814.115
773.855
722.53
695.938
683.9
708.66
711.541
713.423
1155.21
1178.97
1159.73
1135.65
1117.27
1100
1080.82
1058.09
1031.37
1000.68
965.963
926.72
880.251
833.05
788.942
748.99
713.571
683.582
637.966
626.171
644.162
649.466
654.498
1090.6
1116.28
1092.59
1068.86
1057.46
1041.36
1022.87
1000.81
974.627
944.192
909.63
870.432
823.009
770.443
721.865
681.268
648.637
622.278
587.757
570.8
578.89
586.921
596.245
1024.09
1049.86
1018.76
999.026
998.7
983.533
965.274
943.907
918.475
888.343
853.483
813.252
763.341
705.054
651.96
610.264
580.533
557.906
530.072
509.923
511.585
523.401
539.243
956.271
980.693
945.276
932.886
941.514
926.253
907.878
887.358
862.902
833.046
797.446
755.534
701.897
635.627
577.632
534.633
509.406
493.353
467.79
443.263
440.839
458.105
484.144
888.251
911.413
877.85
873.097
884.783
868.631
850.313
831.031
807.871
778.209
741.275
697.131
638.637
559.4
496.199
451.275
434.415
430.833
404.418
371.041
364.385
389.725
431.932
821.243
844.046
818.596
819.968
826.878
809.477
792.112
774.778
753.396
723.79
684.627
637.686
572.839
472.367
407.324
357.115
354.899
374.576
341.773
288.271
278.542
313.203
385.12
436.11
445.515
322.634
293.82
275.831
377.486
563.765
494.495
506.301
618.543
662.598
625.736
673.2
550.429
331.284
384.275
434.713
498.557
500.929
379.138
359.115
186.759
243.452
199.865
291.823
472.428
388.31
433.238
571.378
603.73
590.07
634.545
460.603
246.559
305.026
381.237
442.254
435.233
385.394
226.127
163.211
208.878
161.015
254.505
375.232
252.667
345.167
518.349
574.517
569.601
521.124
150.542
28.0117
145.841
321.854
377.834
364.338
418.827
183.052
158.2
164.283
155.589
166.458
281.559
266.572
276.473
454.855
561.383
574.777
390.752
-8.6069
1.50044
39.2013
215.491
301.483
229.816
404.502
199.912
158.439
153.987
153.756
146.257
202.162
282.053
298.036
433.276
566.911
564.272
267.246
-51.3163
-18.5253
25.8321
156.614
277.572
223.761
365.788
231.807
140.086
151.51
152.675
143.626
179.321
312.9
267.832
404.947
553.318
506.908
279.517
-63.9274
-27.3865
18.2007
83.505
277.48
244.286
343.425
217.352
101.809
134.728
147.989
64.2547
227.167
354.844
244.691
368.643
478.217
455.693
261.792
-30.2769
-22.2475
13.4609
18.7359
304.835
276.244
289.859
115.215
-65.419
-32.0582
-41.363
9.74374
212.868
356.438
227.845
301.13
374.929
405.689
171.066
-2.25342
-23.7451
11.1883
105.13
326.011
294.233
701.24
760.573
747.633
752.011
746.721
730.487
716.121
702.635
684.525
654.741
610.456
556.033
484.076
326.882
288.299
255.59
263.155
329.828
280.039
189.076
160.737
194.442
334.8
578.847
624.428
618.479
611.254
599.413
590.387
584.904
581.959
573.632
542.727
480.98
387.35
338.326
289.83
260.903
209.78
196.23
191.71
116.711
111.483
106.193
83.5932
204.354
380.502
450.497
441.945
438.783
438.505
442.331
448.381
460.975
474.782
450.588
363.311
270.252
249.787
227.33
155.25
63.1277
27.601
35.466
77.2889
87.4878
95.9714
99.0459
148.094
374.432
374.7
374.362
374.008
374.099
374.886
370.25
353.261
395.815
395.478
285.785
208.772
153.491
193.758
77.3789
15.2635
12.0734
12.1586
13.7064
35.3221
77.6962
88.375
91.1998
374.087
374.188
373.976
373.822
373.765
373.689
325.533
232.196
276.682
293.522
230.886
93.8152
88.5287
109.492
7.62614
8.6676
10.3852
10.3566
9.01877
8.57207
39.5454
29.3823
50.4078
373.506
373.733
373.583
373.502
373.443
373.402
324.443
191.274
130.004
164.148
133.228
81.7577
78.1217
76.3786
9.6466
8.77643
9.64351
9.97425
8.80426
7.46433
6.16173
15.195
4.51974
373.018
373.201
373.166
373.173
373.219
369.272
217.297
27.4012
22.4953
19.6233
21.4213
25.2078
18.69
21.4707
11.5746
8.48742
10.1782
10.0695
8.20425
7.5086
7.42528
7.17655
5.58308
372.548
372.672
372.749
372.805
365.77
209.522
31.1613
24.0559
21.8559
20.0259
18.5803
17.1442
15.7105
13.9364
13.2162
13.5196
9.03985
9.69942
3.40631
8.16979
9.13529
9.12605
3.21864
372.031
372.083
372.738
359.76
150.622
33.2091
29.2704
25.1448
21.7591
19.783
18.1126
16.6083
14.8567
13.0741
11.5036
10.3728
11.1209
32.161
11.0639
6.07131
6.36212
4.97905
2.45089
370.265
369.971
363.796
132.808
37.1858
32.425
29.6834
26.511
24.7638
20.0285
17.5306
16.4144
14.0239
11.8954
10.5179
9.63381
9.17244
8.42417
2.07663
1.15413
0.592078
0.361598
0.337879
427.146
253.771
85.9118
45.9688
38.9417
33.2817
29.3712
26.5181
24.8878
17.0401
17.1622
15.7263
10.6074
9.92617
9.16294
8.75561
8.27771
5.20884
0.66715
0.652469
0.315007
0.169157
0.140776
262.302
117.998
53.9661
51.1104
41.1634
32.5793
28.5976
23.6824
10.3195
3.40447
8.3229
3.33802
0.685999
7.54185
7.28422
7.7619
5.74077
1.34351
0.12412
0.0797034
-0.00543719
-0.0627104
-0.0835858
72.2374
22.3279
40.314
39.2206
11.7392
1.88311
-10.61
-6.93373
-3.4755
-2.47144
-2.76015
-0.668692
2.51824
3.20052
4.19666
4.60762
0.830498
0.182001
-0.110647
-0.315692
-0.300645
-0.3078
-0.30909
12.9746
-6.94299
-24.8185
-12.7708
-25.4984
-20.1568
-17.8108
-11.037
-6.9152
-5.26229
-5.52238
-3.56514
1.68547
2.37606
1.66731
1.07989
0.778557
0.213262
-0.269199
-0.516176
-0.525791
-0.535033
-0.540617
-7.3792
-10.1172
-14.7068
-25.8025
-25.7936
-23.9578
-19.3783
-14.5558
-10.7163
-8.00806
-6.39785
-5.35387
-3.15488
-1.11092
-0.35304
-0.536347
0.274979
-0.273599
-0.497171
-0.668405
-0.743594
-0.769993
-0.780742
-14.6563
-12.6781
-16.2127
-31.2362
-34.0484
-28.7753
-22.1417
-16.9844
-12.7801
-9.3598
-6.98282
-5.38739
-4.13314
-2.84077
-1.74313
-1.25477
-1.05331
-0.91569
-0.912059
-0.96206
-1.00422
-1.0245
-1.03085
28.1719
-20.3338
-47.7507
-82.0967
-56.4516
-39.4283
-25.0584
-17.53
-12.867
-9.42602
-7.06394
-5.54481
-4.52481
-3.68627
-3.39135
-2.28357
-1.6991
-1.39527
-1.29528
-1.28577
-1.29189
-1.29442
-1.28966
17.6282
-28.7864
-76.1046
-137.283
-109.528
-53.3339
-26.2336
-16.3125
-11.4547
-8.44809
-6.49841
-5.29454
-4.58924
-4.6803
-4.08834
-2.58145
-2.02704
-1.73435
-1.64026
-1.60871
-1.58957
-1.57318
-1.55523
13.9014
-6.26039
-63.4352
-110.31
-94.6488
-43.1754
-18.7683
-11.6312
-8.46155
-6.57512
-5.35572
-4.62144
-4.23752
-4.03547
-2.01677
-2.36198
-2.25586
-2.08801
-1.98997
-1.93182
-1.89106
-1.85749
-1.82602
6.64164
3.22138
-22.4944
-41.1489
-30.2284
-10.5323
-6.11636
-5.30826
-4.82308
-4.3193
-3.91265
-3.71421
-3.77059
-2.8995
-2.53971
-2.50407
-2.47215
-2.40056
-2.32169
-2.25327
-2.19635
-2.14684
-2.1014
-3.03497
-5.05767
-11.0132
-7.42381
4.19147
5.64445
1.91904
-0.613325
-1.9376
-2.37402
-2.52714
-2.70558
-3.29043
-2.8598
-2.81778
-2.77742
-2.78052
-2.74044
-2.66596
-2.58514
-2.51011
-2.44258
-2.38159
-7.57562
-8.57433
-8.19209
-2.50895
5.80192
7.26803
4.99204
1.91127
-0.389299
-1.21943
-1.4152
-1.88179
-2.44326
-3.34654
-3.24377
-3.23561
-3.22579
-3.16194
-3.05612
-2.9427
-2.83817
-2.74651
-2.66677
-9.36839
-9.35426
-6.4572
-1.62271
3.77772
6.73289
6.44471
3.05343
-2.78905
-0.937378
-0.929373
-2.10308
-4.38335
-4.16525
-4.0424
-3.9716
-3.87108
-3.711
-3.51809
-3.33702
-3.1838
-3.05866
-2.95597
-7.08636
-10.5485
-6.0359
-1.96046
2.00251
5.65597
7.29903
1.75454
-7.90712
-2.88522
-5.90387
-6.19112
-5.68089
-5.1357
-5.069
-4.98812
-4.77189
-4.43984
-4.0715
-3.77072
-3.54398
-3.37514
-3.24596
-3.51909
-6.03918
-4.7034
-2.76943
-0.905342
1.82892
1.13742
-4.83043
-6.62755
-6.85836
-6.8077
-7.14494
-6.65929
-6.04502
-5.93422
-6.03891
-5.92386
-5.4499
-4.76048
-4.23588
-3.9066
-3.68708
-3.5311
-1.65115
-3.06271
-3.55533
-3.83009
-4.80649
-8.77943
-10.5215
-6.92901
-6.6438
-6.8458
-7.33419
-8.15127
-8.09546
-7.10506
-6.61111
-6.70681
-6.85089
-6.60177
-5.62945
-4.70176
-4.2458
-3.9806
-3.80402
-1.77317
-2.18921
-3.34715
-4.53873
-6.71154
-12.2375
-10.1842
-6.97974
-6.28353
-6.68506
-7.68939
-8.62832
-8.50497
-7.61626
-6.99444
-6.9343
-7.10367
-7.12361
-6.30951
-5.04234
-4.5177
-4.24122
-4.05854
-2.65593
-2.53682
-3.68403
-4.86677
-6.49321
-8.88239
-9.25222
-8.22938
-6.44905
-6.81927
-7.7444
-8.2345
-8.19362
-7.67273
-7.06588
-7.08975
-7.17037
-6.98354
-6.21566
-5.12799
-4.70962
-4.46865
-4.29452
-3.49967
-3.22774
-4.26912
-5.19979
-6.30034
-7.4903
-7.94576
-7.4653
-7.02818
-7.13459
-7.64514
-7.74032
-7.42474
-7.28916
-7.1934
-7.07386
-6.69965
-6.19842
-5.62689
-5.16423
-4.88601
-4.68336
-4.51795
-4.92423
-4.41367
-5.07828
-5.57469
-6.33051
-6.92696
-7.17294
-7.05684
-6.95232
-7.14156
-7.5535
-7.71826
-7.70973
-7.54697
-7.33057
-7.08283
-6.68218
-5.90964
-5.61285
-5.32691
-5.09474
-4.89844
-4.73204
-6.33326
-5.82954
-5.97942
-6.1752
-6.57426
-6.8412
-6.92867
-6.87957
-6.86581
-7.25123
-7.64474
-7.90648
-7.78445
-7.68257
-7.4509
-7.12406
-6.72185
-6.25301
-5.85198
-5.55346
-5.30833
-5.10367
-4.9325
-6.78489
-7.00601
-6.53194
-6.58942
-6.93337
-6.95358
-6.91937
-6.88361
-6.80802
-7.84954
-8.08993
-8.27118
-8.1918
-7.99681
-7.67087
-7.26398
-6.83467
-6.41509
-6.04892
-5.74619
-5.49471
-5.2859
-5.11286
-6.62909
-6.75442
-6.62415
-6.7875
-7.26418
-7.13362
-7.06054
-7.1066
-7.38816
-8.85673
-9.03625
-9.3893
-9.19191
-8.61376
-7.9999
-7.44295
-6.95803
-6.54015
-6.1864
-5.89013
-5.64312
-5.43817
-5.26877
-6.58234
-6.7215
-6.7716
-6.9199
-7.31082
-7.2702
-7.22638
-7.34103
-9.00308
-9.58387
-10.5324
-11.6623
-11.3784
-9.62199
-8.35859
-7.58426
-7.03324
-6.60858
-6.26658
-5.98522
-5.7521
-5.55894
-5.39926
-6.63659
-6.79063
-6.90125
-6.98275
-7.18395
-7.3217
-7.31413
-7.35226
-9.09111
-10.0551
-11.6581
-13.7704
-13.3553
-10.2621
-8.44567
-7.56839
-7.00855
-6.60427
-6.28947
-6.0344
-5.82416
-5.64994
-5.50565
-6.54152
-6.76404
-6.88639
-7.00072
-7.21681
-7.37854
-7.44854
-7.69953
-8.95843
-10.027
-11.1182
-12.2661
-12.1642
-9.5714
-8.06633
-7.34075
-6.86931
-6.52751
-6.26064
-6.04383
-5.86438
-5.71494
-5.5905
-6.0302
-6.66104
-6.84043
-7.35672
-7.45066
-7.42142
-7.38936
-7.6656
-8.29076
-8.83055
-9.75026
-9.73814
-9.30008
-8.25442
-7.43615
-6.98157
-6.65281
-6.39931
-6.19397
-6.02332
-5.87992
-5.75914
-5.65766
-4.94134
-6.51058
-6.82568
-7.53916
-7.69244
-7.43419
-7.20895
-7.37921
-7.34285
-7.08937
-7.27054
-7.5248
-7.50355
-7.16147
-6.84972
-6.61268
-6.41618
-6.25011
-6.10757
-5.98465
-5.87888
-5.78834
-5.71126
-5.51433
-6.19452
-6.61356
-7.38818
-7.79579
-7.37015
-6.98196
-8.28891
-7.25352
-6.96166
-6.81891
-6.74936
-6.65243
-6.5307
-6.41225
-6.30333
-6.20091
-6.10542
-6.01776
-5.93887
-5.86911
-5.80824
-5.75558
-5.74503
-5.68965
-6.1723
-7.05252
-7.64341
-6.98899
-5.90923
-7.03862
-6.92365
-6.58512
-6.36981
-6.26372
-6.19855
-6.1502
-6.10907
-6.0683
-6.02518
-5.98034
-5.936
-5.89444
-5.85706
-5.82407
-5.79489
-5.55166
-5.39313
-5.90843
-6.73472
-7.82956
-6.16187
-4.34458
-4.69885
-5.73987
-5.94224
-5.97018
-5.95073
-5.92813
-5.91391
-5.90653
-5.89948
-5.89092
-5.87992
-5.86757
-5.85616
-5.84732
-5.84044
-5.83333
-6.08054
-5.99898
-7.57403
-7.41593
-10.22
-7.22361
-4.778
-5.00947
-5.51038
-5.70716
-5.76768
-5.77815
-5.77679
-5.77828
-5.78227
-5.78603
-5.79199
-5.80199
-5.81492
-5.83072
-5.8484
-5.86452
-5.87643
495.561
584.119
652.394
678.845
428.239
478.842
537.544
556.145
191.701
196.374
193.392
179.602
109.894
116.616
111.098
87.0707
49.7741
28.1802
45.868
12.9525
9.37909
7.26627
6.17485
5.80157
7.44296
8.05923
6.86483
6.05574
4.79535
5.47078
3.62678
1.13283
0.748377
0.675649
0.743675
0.792131
0.379381
0.363227
0.385816
0.402871
0.145498
0.144693
0.155592
0.170537
-0.08177
-0.0780974
-0.0741399
-0.0708853
-0.308478
-0.307682
-0.306662
-0.305759
-0.542336
-0.542552
-0.542015
-0.5411
-0.782594
-0.782138
-0.780572
-0.778316
-1.02885
-1.02617
-1.02242
-1.01795
-1.28072
-1.27469
-1.26788
-1.2605
-1.53768
-1.52758
-1.51706
-1.50622
-1.79904
-1.78439
-1.76973
-1.75505
-2.06434
-2.04481
-2.02567
-2.00686
-2.33349
-2.30864
-2.28468
-2.26144
-2.60615
-2.57546
-2.54628
-2.51837
-2.8812
-2.84418
-2.80949
-2.77677
-3.15611
-3.11259
-3.07238
-3.03496
-3.42689
-3.37736
-3.33211
-3.29045
-3.68876
-3.63457
-3.58534
-3.54028
-3.93789
-3.88096
-3.82915
-3.78166
-4.17341
-4.11531
-4.062
-4.01286
-4.397
-4.3381
-4.28372
-4.2334
-4.60919
-4.54927
-4.49399
-4.44292
-4.80732
-4.74667
-4.69102
-4.63997
-4.98747
-4.92711
-4.87207
-4.82198
-5.14683
-5.0882
-5.03494
-4.98669
-5.28446
-5.22923
-5.17908
-5.13367
-5.40141
-5.35132
-5.30575
-5.26441
-5.50015
-5.45664
-5.417
-5.38098
-5.58345
-5.54759
-5.51484
-5.48507
-5.65431
-5.62666
-5.60131
-5.57822
-5.71609
-5.69673
-5.67886
-5.6625
-5.77226
-5.76091
-5.75027
-5.74041
-5.82641
-5.82253
-5.81866
-5.8149
-5.88321
-5.88587
-5.88795
-5.88961
452.716
-63.1488
-129.879
-96.1679
-102.687
-89.5358
74.2815
260.01
190.514
194.348
239.895
328.108
115.668
-0.377639
-55.8089
29.2697
161.823
321.449
271.226
393.167
-76.635
-118.147
-103.89
-101.097
-94.5197
-76.4192
143.966
160.676
75.8668
-61.8845
80.7379
22.9477
26.1804
54.2322
87.6124
185.329
189.136
149.303
139.863
17.6296
-81.6432
-131.862
-132.178
-98.7773
14.9583
86.5278
111.179
48.0461
-124.611
16.6134
15.4648
15.0402
38.3227
44.9065
72.8068
95.1457
80.8414
53.5635
16.44
9.97639
0.137624
23.2801
67.7924
72.6344
65.4305
89.9146
47.6117
41.2868
14.1559
14.6093
14.3056
14.7773
22.8151
17.1116
13.1077
29.6256
6.534
8.34487
4.09575
18.0881
62.9186
76.7012
68.5384
55.0086
3.12747
2.33313
5.42084
2.93408
6.14875
12.9181
13.9425
15.9676
12.3469
9.77037
6.68237
4.11588
2.82336
2.31577
1.42258
9.55385
19.8622
6.53483
3.17318
2.18422
4.74773
3.72062
3.63807
-0.73278
9.77184
9.01691
6.23405
5.93677
5.34621
7.35251
-2.32839
0.837931
0.615876
0.728673
1.21456
1.55243
1.36256
1.23874
1.10142
1.18757
1.43823
2.70238
2.02203
2.45994
-1.6688
1.11814
3.15304
4.24191
11.0022
0.774402
0.763817
0.099005
0.291109
0.663074
0.689706
0.43791
0.580656
0.747563
0.64906
0.241948
0.654266
1.06611
-0.207821
-1.053
-0.431049
0.106638
0.737228
10.2961
0.6453
0.803261
0.534333
0.405238
0.420774
0.353348
0.26825
0.260185
0.307223
-0.0483533
-0.629397
-0.64786
-0.27183
-1.08049
-1.42095
-1.15431
-1.15625
-1.6729
-0.705279
0.420743
0.488749
0.448872
0.273383
0.19042
0.17844
0.102485
0.0401835
-0.0969768
-1.07308
-1.30508
-1.18089
-1.42001
-2.08986
-2.40361
-1.96843
-1.79732
-2.0883
-1.68111
0.1839
0.186169
0.130948
0.0540027
0.0196437
-0.00398909
-0.0491468
-0.0983892
-0.317072
-1.64838
-1.85188
-1.6234
-2.10435
-2.94781
-3.19884
-2.64912
-2.15913
-2.34553
-3.85637
-0.070136
-0.0757399
-0.10485
-0.144148
-0.169223
-0.192538
-0.219911
-0.242355
-0.410255
-1.37047
-1.27211
-1.44307
-2.02648
-2.73993
-2.87155
-2.37257
-2.00162
-1.85883
-1.9133
-0.305965
-0.310858
-0.326975
-0.347232
-0.364473
-0.380798
-0.396256
-0.410789
-0.479543
-0.810269
-0.709051
-0.982397
-1.35397
-1.78979
-2.00225
-1.9087
-1.80167
-1.41888
-1.11925
-0.540221
-0.540699
-0.546463
-0.554802
-0.562814
-0.569176
-0.571804
-0.580454
-0.552998
-0.435556
-0.197811
-0.611282
-0.974921
-1.24338
-1.52717
-1.71969
-1.74912
-1.23596
-0.841796
-0.775035
-0.769748
-0.766917
-0.76566
-0.764467
-0.761566
-0.754492
-0.752382
-0.724368
-0.493407
-0.434098
-0.436576
-0.646047
-1.12744
-1.58124
-1.73927
-1.76367
-1.25074
-0.757807
-1.01148
-0.999711
-0.989136
-0.979671
-0.970511
-0.960463
-0.947934
-0.93577
-0.921697
-0.831036
-0.826242
-1.13478
-1.25905
-1.59426
-1.7391
-1.70555
-1.6781
-1.47132
-0.639736
-1.25017
-1.23145
-1.21364
-1.19702
-1.18133
-1.1662
-1.1514
-1.13825
-1.12886
-1.11387
-1.14355
-1.23145
-1.37266
-1.63015
-1.84989
-1.78212
-1.78862
-1.88221
-1.82797
-1.49146
-1.46545
-1.44068
-1.41763
-1.39644
-1.37751
-1.36179
-1.35123
-1.34872
-1.35377
-1.37483
-1.43579
-1.53904
-1.80921
-2.22869
-2.13721
-2.14065
-2.65109
-3.10366
-1.73545
-1.70188
-1.67028
-1.64115
-1.61493
-1.59253
-1.57572
-1.5672
-1.56998
-1.58501
-1.61609
-1.66689
-1.72379
-2.01245
-2.78584
-2.66121
-2.66867
-3.32903
-3.57099
-1.9821
-1.94073
-1.90231
-1.86721
-1.83593
-1.80969
-1.79073
-1.78258
-1.78929
-1.81431
-1.86779
-1.97357
-2.15106
-2.58904
-3.02373
-2.99175
-3.03572
-3.41516
-3.35116
-2.23127
-2.18192
-2.13665
-2.09552
-2.0589
-2.02796
-2.00522
-1.99511
-2.00301
-2.03336
-2.09533
-2.20172
-2.41591
-2.74904
-3.24424
-3.35028
-3.13704
-2.83762
-2.89059
-2.4826
-2.42519
-2.3731
-2.32588
-2.28354
-2.2468
-2.21811
-2.20281
-2.20767
-2.23563
-2.28407
-2.34758
-2.4413
-2.89393
-3.49329
-3.78346
-3.10932
-2.3953
-2.68055
-2.7354
-2.67002
-2.61127
-2.55805
-2.50977
-2.46614
-2.42884
-2.40476
-2.40312
-2.42703
-2.4615
-2.48245
-2.45933
-3.18645
-3.61752
-3.80395
-3.10756
-2.61841
-2.87094
-2.98824
-2.91536
-2.85042
-2.7917
-2.73806
-2.68787
-2.64325
-2.6105
-2.60456
-2.63251
-2.66372
-2.6704
-2.70862
-3.06512
-3.46228
-3.50841
-3.45999
-3.2997
-3.23937
-3.23902
-3.15951
-3.08932
-3.02639
-2.96983
-2.92001
-2.86791
-2.81625
-2.80683
-2.87498
-2.93467
-2.93944
-2.98235
-3.09032
-3.15449
-3.41055
-3.89748
-3.84792
-3.53492
-3.485
-3.40005
-3.32589
-3.26071
-3.20646
-3.1684
-3.09087
-2.99448
-3.01089
-3.1145
-3.22068
-3.24353
-3.2746
-3.46059
-3.56173
-3.61718
-3.92109
-3.85796
-3.57756
-3.72345
-3.63417
-3.55693
-3.49041
-3.44318
-3.43081
-3.3457
-3.31907
-3.44497
-3.49319
-3.47448
-3.47772
-3.50013
-3.57334
-3.75659
-3.8804
-3.98499
-3.75144
-3.42656
-3.95244
-3.85968
-3.77939
-3.70921
-3.645
-3.68746
-3.73667
-3.8368
-3.85382
-3.85027
-3.8014
-3.6986
-3.68348
-3.70362
-3.77207
-3.84869
-3.82749
-3.61208
-3.37297
-4.17143
-4.07645
-3.99471
-3.92502
-3.88456
-3.95493
-4.10013
-4.17724
-4.1126
-4.05337
-4.04905
-4.00188
-3.89439
-3.85958
-3.92817
-3.97125
-3.95273
-3.78246
-3.60383
-4.38028
-4.28506
-4.20394
-4.13294
-4.10205
-4.14675
-4.34202
-4.46031
-4.35649
-4.24421
-4.20702
-4.20359
-4.18284
-4.10977
-4.1304
-4.17331
-4.17732
-4.02768
-3.91568
-4.57791
-4.48562
-4.40971
-4.34325
-4.30352
-4.37172
-4.72235
-4.73727
-4.5324
-4.40097
-4.35564
-4.34742
-4.35244
-4.37956
-4.38367
-4.37013
-4.35682
-4.26687
-4.23967
-4.76167
-4.67483
-4.60972
-4.57056
-4.59425
-4.63152
-4.72169
-4.70531
-4.58315
-4.52068
-4.4965
-4.48793
-4.4884
-4.50218
-4.52426
-4.53636
-4.52905
-4.46313
-4.3662
-4.92892
-4.84772
-4.79129
-4.76885
-4.78413
-4.78806
-4.75365
-4.70736
-4.67861
-4.65805
-4.63958
-4.62809
-4.62196
-4.61975
-4.61636
-4.6041
-4.57255
-4.54294
-4.51846
-5.07927
-5.00293
-4.94898
-4.93258
-4.94041
-4.92796
-4.88732
-4.84652
-4.82375
-4.80249
-4.78365
-4.76898
-4.75784
-4.74838
-4.73727
-4.7208
-4.69756
-4.67811
-4.6685
-5.21477
-5.14459
-5.09359
-5.08313
-5.11315
-5.10089
-5.0483
-4.99947
-4.97003
-4.94657
-4.92676
-4.91051
-4.89689
-4.88438
-4.87113
-4.85581
-4.83941
-4.82698
-4.82015
-5.33773
-5.27675
-5.23426
-5.22989
-5.29919
-5.31291
-5.23955
-5.15468
-5.11383
-5.08812
-5.06859
-5.05253
-5.03854
-5.02552
-5.01256
-4.99939
-4.98706
-4.97823
-4.9724
-5.44935
-5.39932
-5.36564
-5.3588
-5.42503
-5.48254
-5.42487
-5.30249
-5.25081
-5.22665
-5.20962
-5.19525
-5.18219
-5.16983
-5.15788
-5.14653
-5.13659
-5.12945
-5.12435
-5.55046
-5.51159
-5.4853
-5.47454
-5.49053
-5.51975
-5.49713
-5.4131
-5.3795
-5.36382
-5.35112
-5.33914
-5.32747
-5.31609
-5.30514
-5.29502
-5.28639
-5.28007
-5.27544
-5.64272
-5.61477
-5.59527
-5.58448
-5.58204
-5.58185
-5.58109
-5.5251
-5.51246
-5.50371
-5.49453
-5.48462
-5.47417
-5.46359
-5.45331
-5.44386
-5.43583
-5.42985
-5.42561
-5.72836
-5.71116
-5.69909
-5.69204
-5.68942
-5.69076
-5.69868
-5.66193
-5.65336
-5.64732
-5.64034
-5.63185
-5.62219
-5.61198
-5.60188
-5.59254
-5.58456
-5.57858
-5.57467
-5.81019
-5.80351
-5.79964
-5.79881
-5.80103
-5.80386
-5.80666
-5.79813
-5.79563
-5.79303
-5.78821
-5.78081
-5.77146
-5.76108
-5.7506
-5.74081
-5.73238
-5.72601
-5.72232
-5.89145
-5.89449
-5.89884
-5.90543
-5.91428
-5.92296
-5.92745
-5.93261
-5.93838
-5.94073
-5.93826
-5.93154
-5.92189
-5.9107
-5.8992
-5.88839
-5.87903
-5.87175
-5.8676
1303.22
1289.92
1269.23
1247.02
1227.24
1208.09
1186.53
1161.37
1132.33
1099.46
1061.38
1014.78
973.424
935.74
897.286
857.476
806.627
767.566
757.634
763.677
773.293
772.408
772.98
1244.6
1231.47
1208.85
1187
1168.16
1149.53
1127.92
1102.75
1073.8
1040.97
1003.76
959.384
914.529
873.788
834.043
794.576
748.597
706.832
681.77
699.665
711.088
712.451
714.359
1183.45
1171.49
1146.54
1126.28
1108.63
1090.81
1069.94
1045.24
1016.52
983.823
947.088
904.191
856.482
810.458
768.393
730.82
697.534
662.129
623.059
637.114
647.249
652.085
656.334
1120.3
1107.72
1077.19
1063.95
1049.65
1032.52
1012.33
988.249
959.939
927.406
890.802
847.837
796.814
745.204
700.545
664.025
634.877
606.598
574.257
574.734
582.692
591.816
599.786
1054.67
1038.32
1002.56
1001.38
991.862
974.75
955.036
931.751
904.014
871.486
834.231
789.777
734.51
677.148
629.63
594.001
568.943
545.031
516.98
509.053
516.469
531.618
545.843
986.92
966.645
930.887
941.201
935.058
917.26
897.987
875.734
848.699
815.948
777.458
730.718
669.28
604.658
554.141
519.874
501.497
482.098
453.423
439.283
447.262
471.27
496.471
918.468
897.344
866.796
883.703
877.883
859.458
840.955
820.13
793.954
760.62
720.212
670.784
599.815
524.782
471.092
439.101
433.62
420.94
385.777
363.983
374.501
410.343
455.206
850.8
832.664
811.834
827.327
818.602
800.595
783.656
764.891
739.793
705.332
662.047
609.879
523.055
435.968
378.566
349.09
367.652
365.408
312.33
277.234
290.38
346.558
427.36
416.115
385.069
301.888
282.518
299.856
484.01
570.066
479.275
553.51
649.324
648.65
637.281
666.463
401.85
346.795
425.122
491.175
486.88
512.615
342.497
242.995
224.486
225.705
205.912
406.581
454.539
385.84
494.334
609.839
595.171
607.281
600.053
313.65
266.394
353.683
444.778
424.149
472.485
309.284
163.123
190.152
174.247
171.242
387.076
322.036
278.82
426.183
572.897
581.495
564.91
371.845
33.3571
74.0636
213.649
409.882
329.618
448.051
311.662
155.515
165.844
155.164
155.207
255.759
283.022
258.605
345.739
537.771
566.837
507.157
96.1709
-12.4438
20.5252
95.0243
330.435
240.1
370.071
332.52
161.454
164.656
153.717
153.048
142.258
266.473
280.346
340.601
520.876
583.298
465.891
-7.45603
-39.9702
10.5899
55.5633
280.091
231.156
328.354
361.696
152.776
151.125
152.922
152.865
99.9018
287.839
276.92
310
504.878
549.66
442.465
-49.5445
-49.1114
1.68745
18.104
276.495
255.28
329.261
333.785
122.334
123.633
146.952
128.218
109.654
353.164
288.735
273.299
451.079
474.915
430.134
26.1596
-33.2771
-1.94437
-13.235
288.496
296.114
335.31
285.663
-27.0976
-40.1689
-44.9229
-27.3163
93.4515
353.776
270.765
237.442
353.084
397.419
360.421
49.3913
-20.2914
-13.7019
16.7531
302.571
303.252
321.064
766.125
753.679
748.48
752.669
738.618
722.987
709.517
694.633
671.418
634.329
583.831
527.317
406.773
294.154
274.162
247.189
300.353
320.996
229.134
166.745
168.036
249.648
438.338
630.282
620.485
615.548
605.507
594.37
587.337
583.196
579.524
561.98
515.319
438.767
349.41
309.401
272.85
237.155
192.59
204.602
150.81
114.235
109.975
94.8239
99.383
353.837
461.669
445.703
439.596
438.543
439.327
446.337
451.599
470.388
469.344
415.463
293.387
265.326
248.365
205.815
102.905
47.7795
28.3323
57.0979
85.267
88.6936
98.1637
110.304
187.641
374.87
374.54
374.155
373.991
374.37
375.068
359.99
371.771
406.655
361.103
241.087
170.779
157.476
135.166
38.2085
12.0573
12.2788
11.8168
22.5174
55.5945
90.2466
85.8088
101.904
374.199
374.079
373.885
373.78
373.819
372.855
256.202
249.421
295.015
271.442
168.38
86.6907
99.4857
44.995
8.37287
9.27428
10.5861
9.77228
8.46755
14.1835
46.6316
31.5963
52.7476
373.762
373.643
373.537
373.471
373.473
372.016
253.633
139.364
148.053
156.008
98.647
77.9656
83.7044
28.8019
8.99827
9.10273
10.02
9.51495
8.11621
6.64767
7.97053
15.5979
9.01575
373.235
373.164
373.17
373.192
372.915
325.291
85.483
23.5059
20.7052
20.1001
26.6222
17.178
20.9384
17.2399
7.00854
9.79079
10.3257
9.25385
7.62292
7.55844
7.2539
6.28202
6.30387
372.686
372.663
372.756
372.66
321.205
84.8873
25.5033
22.928
20.8331
19.3346
17.8174
16.5428
14.6939
13.1829
14.213
11.7004
8.91287
7.08947
7.90334
8.66541
9.51261
5.9916
5.3958
372.103
372.354
371.702
288.475
55.1784
30.5464
27.2748
23.371
20.6133
18.9467
17.3596
15.7817
13.9315
12.2569
10.8654
10.131
19.1574
28.4651
6.03593
5.73655
5.43073
4.28451
0.673644
370.761
370.477
269.763
47.9561
34.2588
30.9927
28.1534
25.5753
23.2761
17.8497
17.1702
15.3363
12.7999
11.1376
10.0266
9.3089
9.36215
3.94482
1.70944
0.864744
0.434443
0.325944
0.386266
347.693
154.357
52.4003
42.2175
35.8178
31.1899
27.8035
25.8334
22.4072
16.6928
16.7054
12.5611
10.7159
9.47298
8.93797
8.54776
7.39027
0.990561
0.714932
0.458217
0.222691
0.142985
0.146497
262.205
58.5754
54.1368
46.7706
34.8024
30.5724
26.3938
19.8322
2.98267
6.35391
6.60098
1.04554
4.23007
7.10124
7.60976
7.43148
4.03883
0.149876
0.10188
0.0376574
-0.0398641
-0.0750722
-0.0854921
49.7521
28.5895
46.2236
23.836
6.89399
-6.94523
-13.0396
-4.30606
-2.66015
-2.91546
-1.82977
2.208
2.66225
3.90595
4.65495
3.30691
-0.652432
0.0731264
-0.238134
-0.306043
-0.305
-0.30966
-0.309087
0.763547
-17.5776
-17.4624
-19.7844
-23.9425
-19.173
-14.4932
-8.57389
-5.82509
-5.32467
-5.45359
-0.759714
2.33273
2.08743
1.13603
1.35299
0.57664
-0.0702678
-0.435171
-0.523212
-0.531082
-0.538138
-0.54189
-8.24021
-13.5837
-16.7775
-27.2082
-25.4291
-21.7684
-16.8954
-12.5018
-9.21187
-7.09519
-5.84569
-4.64683
-1.98097
-0.582779
-0.357885
-0.530983
0.0494434
-0.383495
-0.590951
-0.716421
-0.759711
-0.776747
-0.782332
-12.9934
-13.1739
-23.3928
-34.1778
-32.1277
-25.2663
-19.4047
-14.7939
-10.9533
-8.04329
-6.11856
-4.73999
-3.50831
-2.2146
-1.42131
-1.20919
-0.837533
-0.8977
-0.934007
-0.986526
-1.01646
-1.02913
-1.03027
-16.5698
-30.1784
-73.7625
-69.2731
-48.5753
-31.0127
-20.7473
-15.0153
-11.0095
-8.11797
-6.22187
-4.99055
-4.12581
-3.26485
-3.26674
-1.62645
-1.70331
-1.32369
-1.28681
-1.2886
-1.29401
-1.29292
-1.28495
-12.0064
-45.6409
-116.669
-130.396
-78.6973
-36.4106
-20.2636
-13.541
-9.7949
-7.3618
-5.82108
-4.88644
-4.54022
-3.92977
-3.10269
-2.21213
-1.87529
-1.66665
-1.622
-1.59836
-1.58141
-1.56451
-1.54534
13.1007
-34.0576
-94.008
-108.823
-69.947
-27.03
-14.3664
-9.79626
-7.41776
-5.89529
-4.93755
-4.38898
-4.08798
-1.7026
-2.2091
-2.33315
-2.16656
-2.03141
-1.95777
-1.91006
-1.87379
-1.84166
-1.81046
9.55598
-7.87318
-34.8006
-39.1429
-19.3982
-7.1642
-5.6269
-5.06373
-4.56958
-4.09428
-3.78764
-3.68543
-4.0442
-2.33852
-2.50396
-2.49303
-2.43941
-2.36034
-2.28589
-2.2236
-2.17093
-2.12372
-2.07981
-1.47426
-8.94867
-10.6909
-1.17668
6.23713
3.70489
0.503714
-1.41992
-2.22866
-2.44771
-2.61431
-2.91513
-2.69486
-2.9904
-2.78072
-2.78173
-2.76669
-2.70547
-2.6252
-2.54667
-2.47547
-2.41131
-2.35339
-7.21532
-8.59731
-6.30303
2.26493
7.27139
6.38057
3.41885
0.691078
-1.05163
-1.28804
-1.54202
-2.46365
-2.87699
-3.27512
-3.23632
-3.2352
-3.20136
-3.1118
-2.99892
-2.88888
-2.79075
-2.70523
-2.631
-9.20424
-8.28329
-4.22289
1.23031
5.65098
6.99654
5.12395
1.11469
-3.21448
-0.919413
-1.39681
-2.86417
-4.41618
-4.07391
-4.00697
-3.92774
-3.79841
-3.61517
-3.42457
-3.25665
-3.11805
-3.00483
-2.91152
-9.452
-8.7813
-4.03165
0.0419582
3.90167
6.95322
5.67915
-4.26958
-7.72209
-3.76348
-6.34111
-6.04828
-5.30174
-5.07746
-5.04618
-4.89622
-4.61785
-4.25175
-3.91084
-3.6488
-3.45352
-3.3065
-3.19215
-5.86092
-5.72845
-3.77899
-1.82267
0.186301
1.86016
-1.33341
-6.25497
-6.82986
-6.799
-7.00228
-6.98899
-6.29974
-5.92218
-5.98685
-6.02903
-5.72857
-5.10947
-4.46412
-4.05315
-3.78634
-3.60312
-3.46829
-2.81148
-3.42382
-3.70573
-4.07347
-6.85427
-10.6027
-8.60731
-6.60169
-6.72606
-7.02335
-7.7744
-8.31485
-7.60713
-6.78349
-6.60621
-6.81047
-6.80157
-6.19929
-5.08256
-4.43404
-4.09698
-3.88469
-3.73431
-1.97311
-2.78673
-3.93241
-5.40472
-8.6329
-11.8401
-8.86414
-6.47743
-6.38562
-7.13081
-8.24646
-8.70598
-8.07784
-7.2295
-6.90809
-7.03703
-7.15832
-6.99154
-5.47467
-4.71768
-4.36152
-4.14215
-3.98568
-2.27475
-3.11903
-4.2774
-5.58758
-7.53854
-9.50386
-8.72957
-7.63286
-6.41492
-7.28782
-8.06606
-8.28763
-7.94181
-7.27917
-7.06457
-7.12509
-7.12122
-6.8529
-5.51181
-4.87205
-4.57671
-4.37585
-4.22183
-2.64735
-3.73934
-4.74894
-5.72676
-6.88255
-7.89183
-7.7556
-7.19171
-6.93415
-7.42122
-7.7482
-7.47415
-7.38486
-7.19451
-7.20553
-7.06768
-6.43013
-6.01631
-5.36416
-5.00305
-4.77952
-4.5968
-4.44575
-4.52638
-4.79009
-5.28862
-5.95846
-6.65842
-7.11019
-7.14163
-7.04031
-6.88518
-7.39015
-7.65704
-7.73855
-7.63963
-7.43325
-7.21209
-6.89235
-6.32842
-5.75225
-5.46228
-5.20491
-4.99282
-4.81172
-4.65876
-5.80269
-6.1179
-5.99474
-6.38551
-6.7332
-6.90607
-6.92486
-6.90905
-6.90667
-7.47828
-7.7862
-7.83929
-7.74577
-7.57991
-7.29828
-6.92906
-6.50486
-6.03242
-5.69472
-5.42527
-5.20146
-5.01428
-4.85768
-6.76354
-6.72071
-6.52057
-6.73457
-6.99552
-6.92849
-6.91466
-6.9038
-7.3625
-7.91541
-8.23091
-8.24797
-8.10566
-7.84925
-7.47297
-7.04985
-6.62117
-6.22328
-5.89052
-5.61462
-5.38543
-5.19532
-5.03778
-6.74194
-6.66624
-6.67586
-6.99114
-7.21422
-7.08218
-7.04711
-7.0235
-8.49607
-8.76383
-9.27465
-9.34697
-8.92325
-8.30236
-7.71243
-7.19179
-6.74082
-6.35556
-6.03162
-5.76093
-5.53582
-5.34938
-5.19578
-6.72962
-6.72833
-6.8688
-7.04034
-7.28819
-7.24749
-7.27697
-7.49658
-9.54368
-9.88388
-11.1554
-11.7786
-10.5477
-8.8898
-7.93233
-7.28891
-6.80855
-6.42895
-6.11924
-5.8632
-5.65096
-5.47526
-5.33055
-6.75609
-6.83054
-6.95601
-7.03741
-7.26987
-7.36435
-7.43248
-8.08509
-9.69501
-10.8669
-12.582
-14.5098
-11.7394
-9.14631
-7.95052
-7.26223
-6.79235
-6.43806
-6.15561
-5.92431
-5.73297
-5.57437
-5.44319
-6.74579
-6.82861
-6.9329
-7.1247
-7.32548
-7.40422
-7.39314
-8.62392