/*--------------------------------*- C++ -*----------------------------------*\
| =========                 |                                                 |
| \\      /  F ield         | OpenFOAM: The Open Source CFD Toolbox           |
|  \\    /   O peration     | Version:  v1912                                 |
|   \\  /    A nd           | Website:  www.openfoam.com                      |
|    \\/     M anipulation  |                                                 |
\*---------------------------------------------------------------------------*/
FoamFile
{
    version     2.0;
    format      ascii;
    class       volScalarField;
    location    "0.85";
    object      p_rgh;
}
// * * * * * * * * * * * * * * * * * * * * * * * * * * * * * * * * * * * * * //

dimensions      [1 -1 -2 0 0 0 0];


internalField   nonuniform List<scalar> 
9072
(
1321.53
1312.56
1294.83
1272.74
1251.47
1232.57
1212.42
1189.14
1162.03
1131.14
1096.05
1053.79
1006.71
969.668
931.211
892.322
849.572
793.577
783.609
767.545
786.742
787.27
787.296
1320.7
1312.87
1294.36
1271.13
1250.81
1232.69
1212.72
1189.37
1162.33
1131.49
1096.52
1053.21
1006.83
967.522
927.55
887.688
847.429
796.102
767.102
747.152
782.234
785.11
786.995
1317.07
1311.41
1292.16
1268.08
1249.7
1232.43
1213.26
1190.53
1163.8
1133.11
1098.39
1058.75
1011.77
965.482
921.361
881.422
846.003
796.967
751.32
755.753
776.594
781.898
786.93
1311.32
1307.57
1283.88
1260.15
1248.75
1232.65
1214.16
1192.1
1165.92
1135.48
1100.92
1061.72
1014.3
961.734
913.156
872.559
839.928
813.568
773.293
762.09
770.181
778.212
787.535
1303.67
1300.01
1268.91
1249.18
1248.85
1233.68
1215.42
1194.06
1168.63
1138.49
1103.63
1063.4
1013.49
955.204
902.109
860.414
830.683
808.055
780.221
760.072
761.734
773.551
789.392
1294.71
1289.7
1254.28
1241.88
1250.52
1235.26
1216.89
1196.37
1171.91
1142.06
1106.46
1064.54
1010.91
944.636
886.641
843.642
818.414
802.361
776.799
752.272
749.847
767.114
793.152
1285.55
1279.28
1245.72
1240.32
1249.96
1236.5
1218.18
1198.9
1175.74
1146.08
1109.14
1065
1006.5
927.267
864.066
819.142
802.282
798.7
772.285
738.908
732.252
757.593
799.799
1277.4
1270.77
1245.32
1246.23
1241.11
1236.2
1218.84
1201.5
1180.12
1150.52
1111.35
1064.41
999.564
899.092
834.047
783.837
781.625
801.302
768.498
714.996
705.268
739.928
811.846
479.687
459.364
337.32
308.506
290.411
392.009
578.356
509.015
520.765
633.23
677.28
634.673
680.809
556.829
340.082
397.822
448.259
511.448
511.18
480.816
431.608
218.303
266.824
273.294
365.035
540.296
461.744
506.672
644.813
661.597
603.474
660.568
525.413
302.584
333.714
448.966
505.462
476.25
545.174
342.372
170.598
247.203
201.388
344.51
496.813
384.848
477.349
650.531
637.238
627.348
643.43
258.514
86.0266
240.863
443.68
494.946
409.331
636.637
285.84
171.212
176.886
156.112
186.914
471.023
372.862
467.253
645.779
639.21
649.047
567.416
5.6351
12.898
68.2976
340.445
467.099
377.392
664.335
254.018
173.266
177.374
154.421
146.99
377.591
354.353
376.772
567.083
684.542
732.659
494.14
-36.3973
-3.62415
40.7358
385.829
382.626
429.679
662.225
468.389
330.054
178.813
153.496
152.086
307.916
463.091
447.47
542.985
653.118
804.29
463.145
-45.5197
-8.94658
36.641
366.711
560.687
498.613
465.558
418.519
368.771
290.897
275.129
413.914
388.286
447.479
378.059
469.596
832.329
807.706
577.608
131.51
-0.331161
35.3854
355.323
527.625
615.113
659.437
460.75
242.314
207.459
319.407
415.945
619.07
497.426
272.303
647.376
785.699
816.466
550.976
42.9671
69.6851
214.221
470.916
406.682
679.997
1266.01
1262.74
1249.8
1249.83
1239.73
1232.66
1218.29
1204.8
1186.69
1156.91
1112.62
1058.2
986.187
787.963
600.274
476.325
591.922
740.056
691.361
588.136
572.125
645.866
836.968
1268.81
1251.79
1245.84
1238.61
1226.78
1217.75
1212.27
1209.32
1201
1170.09
1108.34
928.698
503.906
350.071
323.305
752.818
739.269
734.625
526.02
168.324
163.034
140.864
716.863
470.259
1166.08
1157.83
1148.04
1163.65
1194.89
1200.94
1213.53
1227.34
1203.14
1115.71
392.625
333.219
640.82
237.1
533.206
328.602
473.261
149.396
395.113
562.818
186.496
631.245
375.408
375.695
375.34
374.935
375.09
380.288
401.632
890.639
1272.84
1273.15
614.803
316.609
323.126
665.718
562.796
144.609
13.137
13.2397
179.914
787.243
829.672
840.256
504.696
375.153
375.192
374.979
374.825
374.774
378.815
1322.52
1231.25
1278.05
513.604
478.083
231.177
96.5056
126.434
24.4971
9.87432
11.5915
11.5629
10.2326
16.3309
846.858
734.348
251.422
374.696
374.861
374.711
374.631
374.571
374.788
1358.28
1312.65
349.637
499.804
472.759
290.467
87.9992
244.52
31.7321
10.1337
11.0004
11.3311
10.1611
8.82218
7.77328
310.732
205.249
374.334
374.455
374.422
374.426
374.474
454.351
1401.96
112.252
25.5403
22.7927
102.86
298.908
23.2388
208.328
198.674
41.3168
11.6893
11.5769
9.71586
9.01632
8.93419
8.6866
7.14051
373.989
374.05
374.129
374.184
654.754
1200.53
178.193
25.7652
23.5577
21.7276
20.282
18.8462
17.4138
15.6224
68.3521
227.407
226.035
167.523
223.947
9.83233
10.7955
46.394
76.5374
373.598
373.586
374.242
768.804
1072.74
103.655
32.0082
32.2401
26.5793
21.872
19.9699
18.4652
16.7123
14.9396
13.31
12.1919
44.1458
273.243
111.72
164.671
194.038
192.44
95.373
383.179
371.6
677.795
765.51
39.5789
34.0842
31.9373
34.6508
33.4674
51.106
19.543
18.4318
16.0397
13.9104
12.4611
11.5964
11.1784
28.6237
12.1616
2.7852
2.22355
2.01522
2.06395
626.818
700.018
487.284
48.4361
40.7183
35.0563
31.1458
28.2953
28.5845
50.506
23.0788
119.255
125.997
12.0049
11.2404
10.8818
10.4417
49.5157
22.7563
2.40757
2.07566
2.33248
2.30897
564.353
574.55
56.8357
53.1981
48.932
34.4805
30.4989
28.9864
44.4104
7.39861
117.645
137.2
134.527
78.3822
9.49322
11.126
47.328
5.65468
6.59332
1.95908
1.89589
2.03788
1.80762
424.789
28.5403
45.666
140.114
112.617
102.678
89.2877
-4.26197
-1.45165
-0.390252
120.286
142.064
18.9256
5.55908
6.49126
58.3541
54.577
2.18977
2.37868
1.68882
1.70389
1.85332
1.69541
314.332
-3.94974
-0.0857571
94.4245
-16.8502
-12.9684
-15.6569
-8.90399
-4.78193
-3.12836
-3.37589
135.003
19.8554
5.20822
3.85868
51.8207
30.7726
2.34308
1.93637
1.62059
1.60403
1.59466
1.58908
-4.40067
-7.47495
-11.6623
-4.64927
-23.3462
-21.6985
-17.1191
-12.2972
-8.40477
-5.73457
-4.14296
-3.09897
54.989
32.7013
1.96461
3.18211
38.0976
1.9813
1.75781
1.58656
1.5113
1.4849
1.47415
20.8594
-9.96631
-13.5858
-28.8037
-31.663
-26.3903
-19.7569
-14.5498
-10.3239
-6.90901
-4.60273
-3.00731
-1.75305
-0.460488
0.669917
1.211
22.5884
1.4644
1.46826
1.41803
1.37587
1.35559
1.34924
93.8941
-17.4555
-43.9937
-75.2632
-53.1937
-36.9221
-22.5531
-15.0247
-10.3617
-6.92074
-4.55866
-3.03951
-2.01949
-1.14926
91.255
68.4589
0.862035
1.43861
1.21
1.21952
1.2134
1.21086
1.21562
51.541
-25.695
-72.7578
-132.165
-102.044
-49.7907
-23.6023
-13.6821
-8.82423
-5.81761
-3.86793
-2.66406
-1.95772
98.2861
175.292
0.0502981
0.604065
0.915062
0.990219
1.02177
1.0409
1.0573
1.07525
16.8151
9.24463
-59.6047
-106.078
-88.5859
-35.5225
-16.0071
-8.87545
-5.70588
-3.81944
-2.60004
-1.86577
-1.47571
157.698
98.4759
0.393692
0.499811
0.667664
0.765702
0.82385
0.864615
0.898184
0.929653
15.6551
6.31178
-12.5193
-32.5739
-21.5072
-4.36942
-3.22818
-2.42733
-1.94221
-1.43843
-1.03178
-0.833329
0.322363
182.687
0.341188
0.376797
0.408716
0.480311
0.559175
0.627599
0.684518
0.73403
0.77947
33.7433
-1.85055
-7.33908
1.66114
12.9054
8.69079
4.92574
2.39274
1.06847
0.632043
0.478923
0.301138
109.705
145.456
0.188286
0.22864
0.225541
0.265623
0.340103
0.420926
0.495952
0.56348
0.624473
3.1261
5.51907
-4.99501
0.701789
8.97483
10.4022
8.12331
5.04252
2.74195
1.91182
1.71604
8.55688
170.72
-0.215037
-0.112517
-0.104363
-0.0945366
-0.0306877
0.0751264
0.188552
0.293083
0.384739
0.464474
9.46689
5.26592
-3.18973
1.638
7.03572
9.98936
9.70116
6.37522
100.193
2.31907
2.3323
174.934
30.5012
-0.908803
-0.785955
-0.715154
-0.614634
-0.454553
-0.261644
-0.0805791
0.0726402
0.197783
0.300477
8.63982
1.38028
-2.65318
1.42151
5.38485
9.03755
18.9957
200.147
190.485
194.543
25.6597
14.0087
-2.29902
-1.75407
-1.68736
-1.60648
-1.39025
-1.0582
-0.689865
-0.38908
-0.162343
0.00649646
0.135675
14.3122
-2.52247
-1.19651
0.737542
2.60207
5.48741
204.29
164.929
0.863174
3.69471
-3.27306
-3.4891
-2.56584
-0.161498
-2.13761
-2.53207
-2.41703
-1.94306
-1.25365
-0.729042
-0.399763
-0.180246
-0.0242637
26.9697
0.570482
0.0767036
-0.198043
-1.1728
17.361
197.423
40.225
-3.00706
-3.20768
-3.69192
-3.63304
-1.94288
-1.56716
-2.97899
-3.07341
-3.20584
-2.96037
-1.99736
-1.06973
-0.613773
-0.348572
-0.17199
37.0444
1.56802
0.410081
-0.7815
-2.94609
-3.70705
37.7463
122.596
-2.52163
-2.92322
-3.92732
-4.73874
-4.30468
-3.78742
-3.23612
-3.17543
-3.34288
-3.35038
2.33776
-1.28512
-0.760477
-0.483999
-0.301315
41.0912
1.3456
0.198392
-0.984348
-2.61078
-4.99495
-5.35267
-3.55841
19.2705
-2.9321
-3.85722
-4.34718
-2.31568
6.40794
23.2267
19.9341
4.1458
-3.06994
10.0349
-1.24557
-0.8272
-0.586226
-0.4121
48.6153
0.779878
-0.261508
-1.19217
-2.29272
-3.4825
-3.93754
-3.45644
-2.39323
-3.12207
-3.6326
-0.770338
-3.41673
-3.28137
-3.18537
23.7856
24.7156
19.7111
4.87704
-1.15659
-0.878392
-0.675744
-0.510335
48.7969
-0.00849062
-0.845874
-1.44188
-2.19282
-2.79404
-3.04009
-2.92399
-2.81711
-2.22545
-3.35823
-2.6529
-1.79036
-3.41416
-3.19776
-2.95002
2.33433
9.25284
-1.48004
-1.1941
-0.961932
-0.765626
-0.599232
48.9909
34.6048
-1.64707
1.05338
-2.31579
-2.58317
-2.67064
-2.62145
-2.6076
0.00126214
-1.84747
0.473045
-2.61964
-3.42455
-3.19287
-2.86605
-2.46385
-1.99501
-1.59397
-1.29545
-1.05033
-0.845666
-0.674499
18.3689
-1.76328
-2.08687
0.0781155
-0.561243
-2.5703
-2.53614
-2.4966
0.0444993
1.54166
-3.1569
-2.63913
-3.80836
-3.61361
-3.28767
-2.88078
-2.45147
-2.03189
-1.66572
-1.36299
-1.1115
-0.902696
-0.729663
31.9236
-2.24399
-2.08848
-2.21854
-1.34948
-2.62517
-2.55212
-2.59814
21.5963
-3.12969
-1.89942
-4.87996
-4.68349
-4.10536
-3.4915
-2.93456
-2.44964
-2.03176
-1.678
-1.38173
-1.13472
-0.929775
-0.760376
33.1097
-2.08629
-2.13567
-2.27518
2.96226
-2.63568
-2.59236
-2.70737
21.2871
-4.63836
-2.07978
-7.02658
-6.74332
-4.9884
-3.725
-2.95067
-2.39965
-1.97499
-1.63299
-1.35163
-1.11851
-0.925351
-0.765672
34.1138
-2.03025
-2.13985
-2.22125
3.38482
2.28555
-2.55381
-0.391291
16.605
-4.00305
-3.46936
-8.93096
-1.76444
-5.50148
-3.68688
-2.80961
-2.24976
-1.84549
-1.53068
-1.27562
-1.06537
-0.891157
-0.746864
1.30983
-1.87849
-1.70601
-2.11388
2.17851
-1.9754
-2.55705
24.862
-2.60665
-1.17317
-6.15307
-1.19656
1.85435
-4.68588
-3.18236
-2.45677
-1.98534
-1.64354
-1.37667
-1.15985
-0.980407
-0.830964
-0.706526
51.2936
-1.65029
-1.39519
8.33249
-1.85434
-1.85108
-2.35349
26.6569
-2.51666
-2.23113
4.68395
5.73489
-2.24265
-3.24467
-2.42698
-1.9724
-1.64364
-1.39014
-1.1848
-1.01416
-0.870749
-0.74997
-0.648488
54.2639
-1.37459
-1.68954
8.58449
0.984691
8.71063
-1.51624
27.8873
1.45263
-1.51453
-1.54581
-1.54193
-2.36909
-2.0271
-1.71536
-1.47832
-1.28182
-1.11575
-0.973203
-0.850292
-0.744522
-0.653975
-0.576895
11.5433
-0.932809
-1.35149
6.57808
8.72046
9.20932
-1.26416
27.8375
0.358028
-1.70021
-1.55928
-1.48978
-1.39287
-1.27114
-1.15269
-1.04377
-0.941356
-0.845858
-0.758205
-0.679309
-0.609556
-0.548679
-0.496026
-0.294226
1.63018
-0.784965
-1.62327
9.31423
9.98513
9.91728
25.5992
-1.52572
-1.20026
-0.985057
-0.878965
-0.813797
-0.765445
-0.724312
-0.68355
-0.640424
-0.595591
-0.551249
-0.509689
-0.472303
-0.439314
-0.410141
0.0208898
5.44172
-0.395135
-1.22012
-2.23266
0.54994
1.21328
0.843323
-0.217587
-0.432279
-0.460232
-0.440784
-0.418183
-0.403961
-0.396581
-0.389528
-0.380974
-0.369973
-0.35762
-0.346208
-0.337373
-0.330493
-0.323379
-0.382796
13.4386
-1.93358
-1.77463
-1.90249
1.04545
0.857861
0.625926
0.124776
-0.0720145
-0.13254
-0.143005
-0.141649
-0.143137
-0.147122
-0.15089
-0.156845
-0.166843
-0.179772
-0.195579
-0.213259
-0.229378
-0.241283
997.73
1086.29
1148.46
1125.81
620.163
670.924
1062.15
1169.14
844.114
736.276
360.783
587.633
299.933
308.133
626.639
616.119
656.826
636.895
614.353
253.19
10.939
8.8294
8.81512
7.77805
9.08574
9.79993
51.5412
158.652
165.169
197.871
145.847
2.6541
2.26858
2.20033
2.66379
4.03274
2.04721
3.77651
3.60335
2.03325
2.3101
1.89881
1.90971
1.9302
1.80274
1.80125
1.80517
1.80934
1.69602
1.69682
1.69784
1.69874
1.58736
1.58715
1.58768
1.5886
1.4723
1.47275
1.47432
1.47658
1.35124
1.35392
1.35767
1.36214
1.22457
1.2306
1.2374
1.24478
1.09279
1.1029
1.11342
1.12426
0.956637
0.97128
0.98594
1.00062
0.816531
0.83606
0.855195
0.874009
0.672578
0.697419
0.721388
0.744623
0.525102
0.555787
0.584972
0.61288
0.375245
0.412264
0.446955
0.479673
0.225531
0.269049
0.309261
0.346684
0.0799461
0.129473
0.174727
0.216385
-0.0567289
-0.00253705
0.046688
0.091748
-0.18066
-0.123734
-0.0719237
-0.0244382
-0.290991
-0.232885
-0.179577
-0.130443
-0.389385
-0.330487
-0.276107
-0.225783
-0.476377
-0.416461
-0.361178
-0.310109
-0.549317
-0.488661
-0.433016
-0.381967
-0.604268
-0.543905
-0.48887
-0.438779
-0.638436
-0.579807
-0.526543
-0.478297
-0.650866
-0.59564
-0.545488
-0.500078
-0.642619
-0.59253
-0.546964
-0.505621
-0.616181
-0.572672
-0.533025
-0.49701
-0.574278
-0.538419
-0.50567
-0.475907
-0.519951
-0.492294
-0.466948
-0.443857
-0.456534
-0.437171
-0.419305
-0.40294
-0.387505
-0.376153
-0.365518
-0.355654
-0.316461
-0.31258
-0.308708
-0.304955
-0.248065
-0.250729
-0.252811
-0.25447
856.503
273.328
-82.4819
-14.5042
-99.4655
-55.2438
533.066
563.027
242.704
643.675
723.286
811.504
359.906
57.4145
66.0151
253.395
312.44
780.028
638.113
1006.45
397.058
-70.4865
-99.8986
-97.106
-90.5226
347.258
261.332
232.802
679.542
542.02
673.111
25.9504
349.82
339.785
570.594
711.87
554.725
689.91
678.109
757.761
659.269
607.162
455.834
449.106
489.887
167.695
742.634
285.96
599.655
135.575
18.5136
17.8844
434.277
440.969
341.317
419.573
302.996
413.782
26.1497
839.552
864.313
736.28
332.285
171.165
229.525
805.385
55.9886
394.162
18.129
18.0493
17.5831
17.2494
119.841
98.463
18.8017
363.796
79.783
63.015
30.4027
989.266
1015.26
504.745
620.976
924.852
85.4634
5.09199
46.1653
264.266
260.638
15.7364
16.7607
153.057
24.6629
17.4991
12.9035
5.87696
4.4055
4.53412
3.71604
275.495
652.099
222.826
10.3049
8.90101
12.69
8.66966
48.7239
291.29
98.1995
173.161
84.0582
7.79387
16.095
15.577
140.774
2.2146
5.54973
3.58591
6.61447
6.91409
6.71962
7.74584
3.98735
2.44094
9.24732
5.06483
3.32557
231.639
68.8473
2.43056
4.67294
5.85687
24.2952
2.28288
2.27019
1.60108
1.79318
2.18557
8.18227
2.94118
2.11081
2.12614
2.02763
9.0459
4.57998
2.49718
1.21358
0.330258
0.958014
1.70921
3.94755
14.8416
3.88288
2.44187
2.17284
2.10304
3.62271
1.8571
1.772
1.76394
1.86727
1.46952
8.13528
1.74634
1.31203
0.503688
0.0872487
0.352973
0.34837
-0.167846
139.744
2.05318
4.16727
4.1272
3.94879
1.81937
1.80739
1.73144
1.66913
1.57063
6.24766
3.70634
0.571864
0.227001
-0.459635
-0.744455
0.0182185
-0.167429
-0.458412
0.476171
2.033
2.04484
1.89415
1.81361
1.77379
1.75018
1.70502
1.65576
1.4371
5.54659
2.77479
0.49093
0.0400691
-1.19235
-1.43258
0.440275
-0.00840967
-0.590376
3.5499
1.80926
1.83798
1.87013
1.78308
1.71013
1.6868
1.65949
1.63699
1.4697
5.56833
0.70923
0.910706
-0.144571
-0.859185
-0.9896
0.921993
0.109736
0.0219469
1.38439
1.69854
1.69364
1.67753
1.65727
1.64015
1.62371
1.60825
1.59564
1.54263
6.38092
1.97917
1.64857
1.16627
1.43333
1.21737
0.327
0.211153
0.606128
0.895157
1.58948
1.589
1.58323
1.57489
1.56688
1.56053
1.5579
1.54931
2.20853
3.4952
2.20582
1.84964
1.21144
0.921062
0.644834
6.48975
8.60469
0.916026
2.3553
1.47986
1.48514
1.48798
1.48923
1.49043
1.49339
1.50047
1.50252
1.92183
2.59711
4.94526
3.81726
2.11174
4.88149
4.49144
9.5172
9.96115
1.14462
2.86766
1.3686
1.38038
1.39095
1.40042
1.40958
1.41962
1.43222
1.44432
1.45839
2.29825
2.0295
1.68059
3.02841
0.876692
0.731722
0.765368
8.54115
1.18611
2.47252
1.25511
1.27383
1.29165
1.30827
1.32395
1.33909
1.35388
1.36703
1.37651
1.39224
1.69704
1.778
1.59069
1.11548
0.750428
1.02829
0.884735
1.2799
5.80462
1.13902
1.16503
1.18979
1.21285
1.23403
1.25297
1.26869
1.27925
1.28229
1.27671
1.25565
1.36318
1.70599
0.926054
0.501413
0.592901
0.669563
3.1723
11.0909
1.02022
1.0538
1.08539
1.11452
1.14074
1.16314
1.17995
1.18848
1.18571
1.17075
1.13958
1.54461
1.44777
7.616
0.0787511
0.294565
0.802432
0.0852962
3.09729
0.89877
0.94014
0.978555
1.01366
1.04494
1.07118
1.09014
1.09829
1.09158
1.06656
1.10633
1.13476
1.40293
10.1824
2.66537
0.27972
1.30971
2.65996
1.86771
0.774798
0.824148
0.869409
0.910539
0.947159
0.978106
1.00085
1.01095
1.00305
0.972709
0.922138
0.804349
0.888199
4.33599
8.87755
1.59652
0.680307
5.7186
1.13912
0.648646
0.706063
0.758152
0.80537
0.847708
0.884452
0.913136
0.92844
0.923578
0.895625
0.847182
0.783672
0.721205
3.84814
0.0313628
0.326695
1.08858
1.07799
5.84486
0.521046
0.58642
0.645171
0.698398
0.746675
0.790305
0.827798
0.881243
0.855354
0.829417
0.808555
0.775286
2.17457
9.81104
0.338779
1.24104
1.58726
5.88902
6.17408
0.393396
0.466275
0.531217
0.589944
0.643578
0.702673
0.855494
0.888245
0.894045
0.791759
0.727038
0.724522
3.14368
7.80245
0.797956
1.36056
0.262572
6.71491
0.244051
0.26782
0.347328
0.417512
0.480443
0.53764
0.708177
0.760328
0.76701
0.743547
0.642173
0.57325
0.579376
0.530676
10.1093
1.31707
3.23726
1.35007
0.534712
0.083344
0.147027
0.231981
0.306136
0.371322
0.478693
0.58842
0.54846
0.647429
4.47898
3.68563
0.413003
0.389622
0.365643
0.172278
8.54627
2.92762
0.495191
-0.0513747
0.169977
0.0337772
0.123059
0.200294
0.266816
0.318141
0.333125
0.419593
6.72232
6.66248
6.60398
5.56133
0.280897
0.257902
0.184693
0.00150232
1.09306
4.89319
4.92173
0.437874
-0.0700238
0.0227385
0.103026
0.173426
0.304269
0.203176
1.83766
6.4917
0.0641873
0.233513
6.54271
6.1598
0.200299
0.191045
0.183525
0.0748872
0.0605852
0.277003
0.648853
-0.163816
-0.0688319
0.0129077
0.0826247
6.62965
6.78106
-0.0393186
-0.16125
0.290686
0.215476
-0.0410995
6.5851
6.13976
0.184543
0.127241
0.0802467
0.704213
0.617167
3.92452
-0.247467
-0.152253
-0.0711313
-0.000126246
1.35936
9.63712
-0.200523
-0.318946
-0.158844
0.45918
-0.0741688
-0.0707603
4.24296
6.05394
1.86878
1.21787
2.15947
1.00709
4.19603
-0.319904
-0.227615
-0.151707
-0.0850886
0.431501
7.04306
8.28708
-0.432234
-0.266734
-0.141686
-0.0936469
-0.0894065
-0.0944342
0.560221
5.31093
5.22926
2.23827
4.03094
1.82554
-0.378466
-0.291632
-0.226505
0.998939
1.30817
0.749935
4.12969
0.294181
-0.187172
0.119268
-0.113291
-0.104582
-0.105201
-0.118974
-0.141061
-0.153163
-0.145836
-0.0799189
0.113037
-0.420524
-0.339324
-0.250354
1.30072
-0.261993
-0.26596
-0.209954
-0.157438
0.0887865
-0.047962
-0.13118
-0.119633
-0.11356
-0.111354
-0.107967
-0.0957051
-0.0641578
-0.0265389
0.0686377
-0.445677
-0.369336
-0.314769
-0.00266402
-0.288713
-0.166878
-0.101556
-0.10688
-0.188797
-0.168896
-0.150043
-0.135387
-0.124247
-0.114788
-0.103682
-0.0872127
-0.0639693
-0.0445193
-0.034906
-0.45598
-0.385802
-0.334806
-0.324299
-0.196657
-0.281903
-0.289514
-0.240676
-0.21124
-0.187778
-0.167963
-0.15172
-0.138107
-0.125593
-0.112342
-0.0970211
-0.0806237
-0.06819
-0.0613666
-0.453762
-0.392781
-0.350279
-0.345794
-0.286039
-0.428932
-0.355568
-0.270687
-0.229861
-0.204151
-0.184615
-0.168555
-0.15457
-0.141547
-0.12859
-0.115414
-0.103092
-0.0942537
-0.0884248
-0.440182
-0.39015
-0.356475
-0.346674
-0.414792
-0.473294
-0.414205
-0.293326
-0.241639
-0.217486
-0.200449
-0.186084
-0.173024
-0.160661
-0.148717
-0.137361
-0.127418
-0.120287
-0.115184
-0.416094
-0.377226
-0.350934
-0.340179
-0.171165
0.215391
0.292649
-0.13082
-0.245133
-0.22946
-0.21676
-0.204779
-0.193111
-0.181726
-0.170779
-0.160661
-0.152029
-0.145703
-0.141079
-0.383159
-0.355209
-0.335709
-0.324922
-0.322482
-0.275267
0.349625
-0.1353
-0.2529
-0.244148
-0.234975
-0.225057
-0.214616
-0.20403
-0.19375
-0.184302
-0.176272
-0.170289
-0.166054
-0.343603
-0.326402
-0.314338
-0.307291
-0.304665
-0.306005
-0.313925
-0.277178
-0.268606
-0.262567
-0.255583
-0.247097
-0.237439
-0.227224
-0.217124
-0.207787
-0.199807
-0.193827
-0.189918
-0.30024
-0.293559
-0.28969
-0.288857
-0.291085
-0.293914
-0.296714
-0.288182
-0.285678
-0.283083
-0.278262
-0.270858
-0.261508
-0.251132
-0.240647
-0.230862
-0.222432
-0.216064
-0.212374
-0.256302
-0.259343
-0.263696
-0.270286
-0.279139
-0.287815
-0.292306
-0.297462
-0.30324
-0.305582
-0.303113
-0.296396
-0.286748
-0.27556
-0.264057
-0.253243
-0.243885
-0.236603
-0.232453
1317.94
1304.63
1283.94
1261.73
1241.95
1222.81
1201.24
1176.08
1147.04
1114.18
1076.09
1029.23
987.67
950.454
912
872.19
821.267
782.187
772.341
778.326
788.008
787.122
787.695
1318.17
1305.04
1282.43
1260.58
1241.73
1223.1
1201.49
1176.33
1147.38
1114.54
1076.1
1029.86
987.064
947.362
907.617
868.15
822.17
780.404
744.974
771.201
784.661
786.012
787.932
1315.88
1303.92
1278.97
1258.71
1241.06
1223.24
1202.38
1177.67
1148.95
1116.25
1079.48
1035.75
988.686
942.888
900.825
863.252
825.725
775.482
736.412
769.497
779.681
784.505
788.766
1311.6
1299.01
1268.48
1255.24
1240.94
1223.81
1203.62
1179.54
1151.23
1118.7
1082.09
1039.13
988.105
936.495
891.836
855.315
826.168
794.681
765.547
766.025
773.982
783.107
791.077
1304.82
1288.47
1252.7
1251.53
1242.01
1224.9
1205.19
1181.9
1154.16
1121.64
1084.38
1039.93
984.66
927.298
879.779
844.15
819.093
795.181
767.13
759.203
766.618
781.768
795.992
1295.93
1275.65
1239.89
1250.21
1244.07
1226.27
1207
1184.74
1157.71
1124.96
1086.47
1039.73
978.288
913.667
863.15
828.882
810.506
791.107
762.432
748.292
756.271
780.279
805.479
1286.34
1265.21
1234.66
1246.15
1245.75
1227.33
1208.82
1188
1161.82
1128.49
1088.08
1038.65
967.682
892.649
838.959
806.968
801.487
788.807
753.644
731.85
742.368
778.21
823.073
1277.53
1259.39
1238.56
1244.21
1245.15
1227.32
1210.38
1191.62
1166.52
1132.06
1088.77
1036.6
949.78
862.692
805.287
775.815
794.377
792.133
739.055
703.959
717.105
773.284
854.086
429.932
399.755
316.574
297.204
314.38
498.552
584.645
493.731
568.191
664.011
661.132
645.352
673.567
408.709
360.009
438.668
504.721
498.25
522.866
413.325
313.215
240.212
293.086
279.341
478.864
527.974
459.275
567.769
683.271
609.883
620.685
655.73
376.504
288.561
419.053
512.486
472.262
524.753
440.013
178.193
228.462
209.104
218.732
457.617
454.216
411.003
558.365
702.73
605.862
672.461
494.065
87.4199
163.446
325.102
531.721
376.916
497.819
492.111
166.836
205.321
156.947
155.856
399.633
419.861
424.321
536.668
711.002
654.522
633.867
210.685
-1.02764
31.9408
129.88
506.204
304.432
549.373
573.402
176.219
235.711
154.384
153.716
201.372
406.777
352.84
472.095
637.382
682.657
706.053
36.1753
-25.0686
25.4915
183.074
509.345
315.206
562.826
567.964
375.109
289.758
153.743
153.686
159.225
522.33
372.099
489.62
599.806
811.066
738.217
181.132
-30.7039
22.0157
231.809
559.719
359.695
618.968
519.103
415.373
309.013
272.273
399.843
459.708
638.217
334.187
391.029
712.949
829.027
717.055
331.934
-11.3632
19.9732
40.2131
625.69
471.174
680.309
631.733
300.438
233.77
242.054
378.786
499.653
756.907
315.164
317.914
763.853
808.192
771.181
147.246
23.5307
189.713
93.5452
692.771
629.636
721.261
1268.29
1255.85
1250.65
1239.98
1240.79
1225.16
1211.69
1196.8
1173.59
1136.5
1086
1029.48
900.131
702.519
507.531
506.297
684.922
738.801
631.186
565.004
591.192
740.095
940.506
1257.65
1247.85
1242.89
1232.87
1221.73
1214.7
1210.56
1206.89
1189.34
1142.68
1066.09
591.873
529.677
328.542
637.025
735.631
747.616
693.081
222.448
166.764
151.758
323.925
744.602
1118.64
1168.31
1148.56
1153.57
1181.62
1198.89
1204.16
1222.95
1221.9
1168.01
843.208
345.916
565.756
344.369
225.251
578.329
307.905
322.096
160.084
615.265
255.973
250.338
829.701
375.86
375.54
375.105
374.911
375.639
388.777
435.172
1248.78
1284.4
1163.82
349.91
340.605
315.887
620.584
504.654
27.232
13.3403
13.2876
705.446
807.571
842.223
835.261
292.577
375.203
375.083
374.888
374.784
374.88
852.259
1254.5
1250.23
947.14
494.572
458.397
94.7162
108.483
80.1466
9.58641
10.4806
11.7924
10.9799
9.69782
403.042
905.208
266.922
500.309
374.89
374.771
374.665
374.599
374.611
599.96
1375.89
872.592
375.16
495.54
437.498
86.9929
192.731
195.751
10.3607
10.4596
11.3768
10.8718
9.47315
8.01437
105.548
328.482
10.6109
374.489
374.418
374.426
374.445
374.235
1273.21
1035.42
25.1973
36.7873
21.6475
324.923
46.0969
157.658
204.097
191.634
13.4485
11.8336
10.7611
9.13044
9.06657
8.7638
7.80537
7.94384
374.065
374.042
374.137
374.107
1221.15
1065.15
27.3956
24.6302
22.5347
21.0363
19.5196
18.2453
16.384
14.8613
197.346
226.216
192.92
227.988
84.0566
10.3271
11.1739
132.585
15.3365
373.606
373.858
373.296
1187.94
460.643
32.3581
32.9301
30.935
23.0962
20.9855
19.2167
17.6376
15.8154
14.071
12.6782
11.9659
224.705
269.426
18.4109
193.412
193.106
176.434
19.5288
372.39
408.26
895.29
195.015
35.9757
32.6423
34.8672
32.4839
50.2977
43.7983
19.1824
17.3664
14.8443
13.1126
11.9739
11.2861
22.3375
14.3053
4.82769
2.49623
2.06645
2.03761
2.05825
796.082
600.83
119.365
44.034
37.5926
32.9645
29.5781
27.613
50.7425
38.5093
29.3191
137.497
23.6496
11.5582
11.0758
10.6765
16.5275
45.321
2.46975
2.218
2.13551
2.31134
2.31326
743.14
101.297
56.3247
48.7169
39.6694
32.4736
31.5056
53.8755
29.2934
17.1199
140.461
134.906
137.937
9.31029
9.82136
35.452
19.3567
8.31864
1.98123
1.91707
2.04825
1.96717
1.79933
441.547
35.6107
90.59
124.736
107.75
93.5237
48.4189
-2.27632
-0.64167
14.0874
140.938
133.894
5.02082
6.26339
20.1981
57.0648
36.6556
2.18146
1.83811
1.69847
1.73411
1.72611
1.69542
5.36096
-13.581
84.3639
77.0528
-17.3289
-17.0028
-12.3521
-6.44114
-3.69114
-3.19273
17.4262
133.119
8.60257
5.7088
8.00394
58.3156
2.70643
2.07691
1.81018
1.60649
1.59873
1.59156
1.58781
-5.17924
-10.4234
-6.34698
-12.0479
-23.1667
-19.5094
-14.6359
-10.2252
-6.89563
-4.8399
-3.59082
-1.29009
68.0942
1.73487
1.95977
32.8346
8.00275
1.87152
1.66403
1.53854
1.49518
1.47815
1.47256
-10.2546
-10.496
-20.8637
-31.7869
-29.741
-22.8826
-17.0136
-12.3413
-8.49055
-5.65066
-3.73847
-2.3599
-1.12821
0.170832
1.02721
3.57482
17.143
1.4824
1.44638
1.39357
1.36364
1.35096
1.34981
-12.4156
-27.2988
-67.0119
-62.6367
-46.0679
-28.5074
-18.242
-12.51
-8.5042
-5.61269
-3.71658
-2.48526
-1.61949
16.192
106.628
24.2458
1.61547
1.18159
1.21847
1.21668
1.21127
1.21236
1.22034
21.3921
-42.5096
-111.458
-124.24
-71.7895
-33.7485
-17.6331
-10.9105
-7.16442
-4.73132
-3.1906
-2.25594
-1.00161
175.248
125.394
0.418373
0.76005
0.971893
1.00848
1.03211
1.04907
1.06597
1.08514
29.2465
-23.0945
-89.9661
-104.591
-61.7756
-23.8351
-11.6102
-7.04059
-4.66209
-3.13961
-2.18188
-1.63324
11.0595
186.003
0.546599
0.422527
0.58911
0.724268
0.7979
0.845614
0.881884
0.914016
0.945213
12.5343
0.916273
-25.4314
-30.4477
-10.7424
-4.16563
-2.74531
-2.18286
-1.68871
-1.21341
-0.906771
-0.803397
107.6
148.604
0.376911
0.387839
0.441459
0.520525
0.594977
0.657268
0.709936
0.757152
0.801057
2.31702
-5.74155
-3.50878
7.90263
10.9021
6.71648
3.50984
1.58614
0.777403
0.558357
0.39176
1.58625
179.432
0.0157231
0.225342
0.224338
0.239372
0.300591
0.38086
0.459395
0.530597
0.594756
0.652677
26.8834
-5.36533
-3.13602
5.4775
10.4309
9.512
6.5501
3.82233
2.07962
1.84321
1.58979
132.524
103.594
-0.143867
-0.105068
-0.103955
-0.0701061
0.0194503
0.132333
0.242367
0.340502
0.426022
0.500254
-5.26469
-2.53613
-0.961599
4.49042
8.90771
10.253
8.3804
11.2663
18.0245
2.33708
45.1626
175.143
-1.15869
-0.817465
-0.750528
-0.671291
-0.541965
-0.358725
-0.168129
-0.000209365
0.138398
0.251617
0.344923
-5.52253
1.31
-0.646934
3.42408
7.2837
10.3349
169.883
194.122
190.604
123.583
51.8207
-2.60289
-1.9201
-1.69582
-1.66454
-1.51458
-1.23621
-0.870108
-0.529205
-0.26716
-0.0718797
0.0751375
0.189485
-2.35333
-2.03211
-0.272111
1.68436
3.70217
54.2197
203.508
2.30247
3.0342
-3.19854
-3.43521
-3.37696
-0.375048
-0.138565
-2.48002
-2.5222
-2.22174
-1.60263
-0.957286
-0.546316
-0.279505
-0.0962858
0.03854
0.820577
0.208225
-0.0736891
-0.441353
-3.1835
197.194
199.189
-2.96483
-3.08883
-3.38533
-4.12446
-2.16319
-1.45548
-3.15133
-2.97415
-3.16879
-3.15625
-2.56671
-1.45053
-0.802008
-0.464949
-0.252656
-0.102281
1.78413
0.9705
-0.175184
-1.64718
-4.75778
1.10814
96.8037
24.5946
-2.62377
-3.36893
-4.47668
-4.62833
-4.15664
-3.4702
-3.14998
-3.27816
-3.39614
-2.53897
-1.71743
-0.960451
-0.604295
-0.384924
-0.228453
1.60768
0.763389
-0.394972
-1.70516
-3.65584
-5.5962
-4.83548
18.14
-0.550569
-3.40064
-4.17885
-4.39993
1.34838
22.9563
23.218
5.45339
0.834411
9.39714
-0.789354
-0.989629
-0.694294
-0.493426
-0.339412
1.36027
0.268744
-0.741327
-1.71915
-2.87493
-3.88331
-3.74769
-3.17577
0.622534
-3.40869
-3.73491
2.53732
-3.37707
-3.18688
9.02985
24.3451
24.9743
18.4665
-1.3542
-0.995436
-0.7719
-0.58918
-0.438136
48.3901
-0.648864
-1.15577
-1.76701
-2.52558
-2.97732
-3.00879
-2.90738
-2.74469
-3.25199
-1.76755
-2.92921
-3.50638
-3.30044
-3.07928
-2.75954
13.4964
-1.1905
-1.32947
-1.07209
-0.860008
-0.678906
-0.525947
48.72
-1.36869
1.09971
-2.02038
-2.47513
-2.64804
-2.66683
-2.65086
19.0358
-3.18343
-1.14166
0.54852
-3.48776
-3.32188
-3.04026
-2.67105
-2.24685
-1.77441
-1.43671
-1.16726
-0.94345
-0.756274
-0.599678
7.45331
-1.67701
-2.08839
2.6493
-2.61077
-2.54526
-2.53144
-2.52031
20.2975
-3.43895
0.135195
-3.86476
-3.72246
-3.46604
-3.08977
-2.66664
-2.23797
-1.84008
-1.50732
-1.23142
-1.00223
-0.812123
-0.654574
-2.23019
-2.15248
-2.13412
2.84658
-2.70483
-2.57376
-2.53869
-2.51496
20.1101
-4.14972
-2.5748
-4.83704
-4.41486
-3.79396
-3.20403
-2.68339
-2.23243
-1.84717
-1.52323
-1.25253
-1.02742
-0.840988
-0.687384
-1.18089
-2.09288
-2.19474
3.20752
-2.65279
-2.61152
-2.62781
20.0176
-3.57745
-2.92944
-6.41438
-7.1431
-5.91401
-4.2562
-3.29874
-2.65532
-2.17496
-1.79536
-1.48565
-1.22961
-1.01737
-0.841669
-0.696963
12.3096
-2.06049
-2.19461
1.42145
3.2989
-2.31283
-2.61173
23.3073
-4.45118
-2.07274
-7.74416
-1.07647
-6.44984
-4.38748
-3.19173
-2.50344
-2.03356
-1.67927
-1.39682
-1.16552
-0.974182
-0.815586
-0.684401
-0.701802
-1.94033
-2.01867
-2.23703
3.50017
-2.24679
-2.50039
23.678
-3.69522
-3.45889
-6.61256
2.11741
-5.1663
-3.78545
-2.77418
-2.19917
-1.80272
-1.5027
-1.26297
-1.066
-0.902283
-0.765874
-0.652425
-1.72209
-1.80123
8.4192
-0.308745
-1.56336
-2.01587
-2.10567
-2.19094
-2.16846
1.4419
5.75288
5.84055
-3.8039