/*--------------------------------*- C++ -*----------------------------------*\
| =========                 |                                                 |
| \\      /  F ield         | OpenFOAM: The Open Source CFD Toolbox           |
|  \\    /   O peration     | Version:  v1912                                 |
|   \\  /    A nd           | Website:  www.openfoam.com                      |
|    \\/     M anipulation  |                                                 |
\*---------------------------------------------------------------------------*/
FoamFile
{
    version     2.0;
    format      ascii;
    class       surfaceScalarField;
    location    "0.85";
    object      phi;
}
// * * * * * * * * * * * * * * * * * * * * * * * * * * * * * * * * * * * * * //

dimensions      [0 3 -1 0 0 0 0];
oriented        oriented;


internalField   nonuniform List<scalar> 
17936
(
-9.18296e-07
3.14648e-06
-2.22818e-06
2.27074e-06
-3.41466e-06
1.14392e-06
4.63787e-06
-6.32186e-06
1.68399e-06
8.06709e-06
-9.19753e-06
1.13044e-06
9.69559e-06
-9.98236e-06
2.8677e-07
1.02986e-05
-1.07025e-05
4.03871e-07
1.12325e-05
-1.1875e-05
6.42523e-07
1.2552e-05
-1.31842e-05
6.32269e-07
1.37218e-05
-1.415e-05
4.28229e-07
1.44838e-05
-1.46986e-05
2.14796e-07
1.46157e-05
-1.40328e-05
-5.82868e-07
1.29657e-05
-1.17458e-05
-1.2199e-06
1.09399e-05
-1.11487e-05
2.08735e-07
1.23018e-05
-1.31906e-05
8.88756e-07
1.23314e-05
-9.9294e-06
-2.40197e-06
7.02719e-06
-4.0599e-06
-2.96729e-06
8.97554e-07
2.44067e-06
-3.33822e-06
-5.15828e-06
5.40054e-06
-2.4226e-07
-1.80653e-06
-5.54906e-06
7.35559e-06
1.19113e-05
-1.22809e-05
3.69589e-07
8.78036e-06
-5.26267e-06
-3.5177e-06
2.72109e-06
-1.01936e-06
-1.70173e-06
-1.72428e-07
9.15671e-07
-7.43244e-07
-5.73174e-06
8.26031e-06
-2.52857e-06
4.72847e-06
-6.67986e-06
-3.05786e-06
5.00925e-06
8.60382e-06
-1.01158e-05
-3.23224e-06
4.74418e-06
1.08804e-05
-1.09616e-05
-1.18568e-06
1.26692e-06
1.08248e-05
-1.09876e-05
-7.95967e-07
9.58745e-07
1.15843e-05
-1.24241e-05
-1.54616e-06
2.3859e-06
1.33051e-05
-1.40992e-05
-1.60866e-06
2.40274e-06
1.47463e-05
-1.52402e-05
-1.15198e-06
1.64589e-06
1.55823e-05
-1.57643e-05
-6.35572e-07
8.17565e-07
1.5792e-05
-1.57396e-05
-9.08639e-08
3.84731e-08
1.57687e-05
-1.60474e-05
6.8098e-07
-4.02266e-07
1.65656e-05
-1.70579e-05
3.98074e-07
9.42296e-08
1.69476e-05
-1.57326e-05
-1.84057e-07
-1.0309e-06
1.34243e-05
-1.06662e-05
1.82935e-06
-4.5874e-06
8.2617e-06
-6.61183e-06
4.67293e-06
-6.32281e-06
5.79875e-06
-5.86814e-06
4.33151e-06
-4.26212e-06
6.68237e-06
-7.83109e-06
4.8433e-06
-3.69458e-06
9.09119e-06
-1.06407e-05
-6.95175e-07
2.24467e-06
1.20973e-05
-1.14548e-05
-1.19429e-05
1.13004e-05
8.2128e-06
-4.91317e-06
2.61923e-06
-5.91886e-06
2.50596e-06
-9.84189e-07
6.27139e-06
-7.79317e-06
2.24725e-07
1.23046e-07
2.59634e-06
-2.94411e-06
-1.92668e-07
4.43159e-08
1.06543e-06
-9.17075e-07
-1.06397e-05
1.28949e-05
-2.25519e-06
4.29131e-06
-6.52797e-06
-7.00787e-06
9.24453e-06
9.32344e-06
-1.19332e-05
-6.78165e-06
9.3914e-06
1.33244e-05
-1.31724e-05
-1.31672e-06
1.1647e-06
1.23104e-05
-1.17639e-05
-7.08628e-07
1.62128e-07
1.18074e-05
-1.21995e-05
-2.90427e-06
3.29633e-06
1.27457e-05
-1.33887e-05
-3.08498e-06
3.72799e-06
1.40612e-05
-1.46743e-05
-2.22983e-06
2.84292e-06
1.51514e-05
-1.54359e-05
-1.06794e-06
1.35243e-06
1.54973e-05
-1.53287e-05
8.30465e-08
-2.51596e-07
1.49422e-05
-1.43285e-05
5.21877e-07
-1.13557e-06
1.34228e-05
-1.21095e-05
3.53757e-07
-1.66709e-06
1.04136e-05
-8.53462e-06
2.78572e-06
-4.66471e-06
6.76007e-06
-5.31821e-06
6.76703e-06
-8.2089e-06
4.30879e-06
-3.53095e-06
7.4799e-06
-8.25774e-06
2.80491e-06
-2.24411e-06
4.13793e-06
-4.69873e-06
2.32435e-06
-3.4321e-06
1.49295e-06
-3.85199e-07
5.04835e-06
-5.80676e-06
-3.67334e-06
4.43176e-06
4.4525e-06
-8.58001e-07
-7.96896e-06
4.37446e-06
-2.02502e-06
2.60035e-06
8.33964e-06
-8.91497e-06
-2.08149e-06
1.44129e-06
8.02788e-06
-7.38768e-06
-9.84119e-07
6.78845e-07
2.91086e-06
-2.60558e-06
-4.00788e-07
1.40772e-07
6.54777e-07
-3.94761e-07
-1.50701e-05
1.71964e-05
-2.12621e-06
4.2393e-06
-7.08291e-06
-1.18131e-05
1.46567e-05
1.05633e-05
-1.34168e-05
-1.23024e-05
1.51558e-05
1.45775e-05
-1.41912e-05
-8.36227e-07
4.49929e-07
1.32613e-05
-1.26269e-05
5.44437e-07
-1.17884e-06
1.25671e-05
-1.29698e-05
-3.67386e-06
4.0766e-06
1.35663e-05
-1.42096e-05
-4.36494e-06
5.00824e-06
1.4833e-05
-1.5367e-05
-3.42338e-06
3.95733e-06
1.57623e-05
-1.59918e-05
-1.61881e-06
1.84833e-06
1.60354e-05
-1.58614e-05
4.18592e-07
-5.92634e-07
1.54076e-05
-1.45878e-05
1.95079e-06
-2.77062e-06
1.33418e-05
-1.17171e-05
3.32895e-06
-4.9537e-06
9.91108e-06
-8.1659e-06
6.45777e-06
-8.20295e-06
6.63273e-06
-5.34233e-06
9.36144e-06
-1.06518e-05
4.25874e-06
-3.31146e-06
9.01855e-06
-9.96583e-06
2.45009e-06
-1.6142e-06
5.54863e-06
-6.38451e-06
7.15049e-07
2.77139e-07
6.86295e-07
-1.67848e-06
-1.27532e-06
2.6159e-06
-3.94277e-06
2.6022e-06
-4.58211e-06
6.08047e-06
-1.76981e-06
2.71448e-07
-6.09425e-06
4.88462e-06
8.15079e-06
-6.94116e-06
-3.41234e-06
2.26508e-06
6.31574e-06
-5.16848e-06
-1.48037e-06
9.10932e-07
2.12988e-06
-1.56044e-06
-4.05364e-07
1.12015e-07
1.35324e-07
1.58025e-07
-1.92859e-05
2.13357e-05
-2.04979e-06
4.29618e-06
-7.15061e-06
-1.7608e-05
2.04624e-05
1.01621e-05
-1.22163e-05
-1.76713e-05
1.97255e-05
1.28467e-05
-1.25908e-05
-1.08327e-07
-1.47566e-07
1.23152e-05
-1.2529e-05
1.48601e-06
-1.27219e-06
1.29841e-05
-1.35895e-05
-4.5491e-06
5.15451e-06
1.42888e-05
-1.49631e-05
-5.66358e-06
6.33793e-06
1.55564e-05
-1.60395e-05
-4.45762e-06
4.94072e-06
1.63849e-05
-1.65736e-05
-2.04967e-06
2.23835e-06
1.65827e-05
-1.63788e-05
7.85493e-07
-9.89362e-07
1.59135e-05
-1.51286e-05
3.56876e-06
-4.35366e-06
1.39819e-05
-1.24865e-05
6.49015e-06
-7.98555e-06
1.07312e-05
-8.85655e-06
9.99478e-06
-1.18695e-05
7.01531e-06
-5.32913e-06
1.21555e-05
-1.38417e-05
3.84953e-06
-2.56952e-06
1.10927e-05
-1.23728e-05
1.48337e-06
-5.84053e-07
7.23497e-06
-8.13428e-06
-1.85343e-07
9.4456e-07
2.56572e-06
-3.32494e-06
-1.87917e-06
3.1889e-06
-9.49855e-07
-3.59879e-07
-4.68147e-06
5.59662e-06
8.02138e-07
-1.71729e-06
-5.51466e-06
4.69762e-06
5.74873e-06
-4.93169e-06
-3.71181e-06
2.82106e-06
4.13766e-06
-3.2469e-06
-2.05396e-06
1.35394e-06
9.27352e-07
-2.27324e-07
-7.06163e-07
2.51778e-07
-5.21031e-07
9.75416e-07
-2.33318e-05
2.52512e-05
-1.91942e-06
4.07076e-06
-6.23984e-06
-2.30389e-05
2.5208e-05
8.15602e-06
-9.33662e-06
-2.13186e-05
2.24992e-05
9.69721e-06
-9.60517e-06
3.23592e-07
-4.15633e-07
1.00724e-05
-1.15939e-05
4.23128e-07
1.09836e-06
1.30306e-05
-1.4061e-05
-5.95449e-06
6.9849e-06
1.49206e-05
-1.56546e-05
-7.03956e-06
7.77353e-06
1.62588e-05
-1.67395e-05
-5.41851e-06
5.89917e-06
1.70872e-05
-1.72859e-05
-2.42676e-06
2.62539e-06
1.73111e-05
-1.71283e-05
1.18965e-06
-1.37246e-06
1.66931e-05
-1.59549e-05
5.12046e-06
-5.85865e-06
1.48659e-05
-1.33958e-05
9.46188e-06
-1.0932e-05
1.15503e-05
-9.40978e-06
1.38532e-05
-1.59937e-05
7.16047e-06
-5.02089e-06
1.57265e-05
-1.78661e-05
3.10753e-06
-1.45484e-06
1.38184e-05
-1.54711e-05
1.38276e-07
7.73463e-07
9.05068e-06
-9.96242e-06
-1.34674e-06
1.77672e-06
3.96937e-06
-4.39935e-06
-2.31219e-06
3.12436e-06
1.40437e-06
-2.21654e-06
-4.11166e-06
4.89363e-06
2.52754e-06
-3.30951e-06
-5.13998e-06
4.84055e-06
4.4107e-06
-4.11127e-06
-4.22008e-06
3.43789e-06
2.42886e-06
-1.64667e-06
-2.56433e-06
1.69266e-06
-5.43632e-07
1.4153e-06
-9.13675e-07
2.8799e-07
-1.52342e-06
2.14911e-06
-2.70671e-05
2.87258e-05
-1.65869e-06
3.56862e-06
-4.77368e-06
-2.69003e-05
2.81053e-05
5.46339e-06
-5.84794e-06
-2.32887e-05
2.36732e-05
6.0767e-06
-6.36068e-06
3.67285e-07
-8.33039e-08
8.05938e-06
-1.08692e-05
-3.28063e-06
6.09049e-06
1.3116e-05
-1.45331e-05
-8.23849e-06
9.65554e-06
1.55473e-05
-1.63428e-05
-8.54018e-06
9.3357e-06
1.69792e-05
-1.74892e-05
-6.39033e-06
6.90033e-06
1.78787e-05
-1.81326e-05
-2.84535e-06
3.09933e-06
1.82237e-05
-1.81139e-05
1.52447e-06
-1.63431e-06
1.77561e-05
-1.70951e-05
6.55993e-06
-7.22088e-06
1.60645e-05
-1.45655e-05
1.24104e-05
-1.39094e-05
1.24617e-05
-9.73795e-06
1.83688e-05
-2.10926e-05
6.74302e-06
-3.98446e-06
2.03293e-05
-2.30879e-05
1.62302e-06
4.23774e-07
1.7355e-05
-1.94018e-05
-2.07267e-06
3.12134e-06
1.09029e-05
-1.19515e-05
-3.54313e-06
3.54901e-06
4.5651e-06
-4.57098e-06
-3.534e-06
3.8816e-06
2.75926e-06
-3.10686e-06
-4.663e-06
5.62056e-06
4.11057e-06
-5.06813e-06
-6.35201e-06
6.56987e-06
4.0475e-06
-4.26536e-06
-6.19176e-06
5.23107e-06
8.46426e-07
1.14258e-07
-3.89821e-06
2.36223e-06
-2.51248e-06
4.04845e-06
-9.7425e-07
7.21999e-08
-2.86108e-06
3.76313e-06
-3.01567e-05
3.12303e-05
-1.07359e-06
2.92229e-06
-3.36431e-06
-2.88787e-05
2.93207e-05
3.02673e-06
-2.7826e-06
-2.36834e-05
2.34393e-05
3.16826e-06
-4.28563e-06
-4.86711e-07
1.60409e-06
7.75303e-06
-1.14606e-05
-9.50381e-06
1.32113e-05
1.36878e-05
-1.51356e-05
-1.11305e-05
1.25782e-05
1.61988e-05
-1.70245e-05
-1.01506e-05
1.09763e-05
1.77002e-05
-1.82705e-05
-7.43667e-06
8.00694e-06
1.87424e-05
-1.90946e-05
-3.39734e-06
3.74955e-06
1.92894e-05
-1.92818e-05
1.69594e-06
-1.70355e-06
1.90335e-05
-1.85016e-05
7.83182e-06
-8.3637e-06
1.75693e-05
-1.59927e-05
1.54475e-05
-1.70241e-05
1.35095e-05
-1.0198e-05
2.42172e-05
-2.75287e-05
6.81963e-06
-4.18651e-06
2.59164e-05
-2.85495e-05
2.07272e-06
6.2748e-08
2.15255e-05
-2.36609e-05
-2.05677e-06
3.52291e-06
1.32147e-05
-1.46808e-05
-4.30986e-06
4.6025e-06
4.62241e-06
-4.91505e-06
-4.89742e-06
5.79464e-06
3.56123e-06
-4.45845e-06
-7.4258e-06
9.3576e-06
6.51134e-06
-8.44314e-06
-1.09818e-05
1.18516e-05
4.79737e-06
-5.66712e-06
-1.17439e-05
1.06485e-05
-1.34342e-06
2.43888e-06
-8.50152e-06
5.67322e-06
-6.27033e-06
9.09863e-06
-2.67475e-06
5.0016e-07
-5.16176e-06
7.33635e-06
8.37266e-06
-1.41047e-05
5.73203e-06
-5.76962e-06
-2.73401e-06
8.50363e-06
1.90984e-05
-3.2701e-05
1.36027e-05
3.57103e-05
-3.54837e-05
-2.26543e-07
3.6329e-05
-3.78974e-05
1.56848e-06
3.81163e-05
-3.44822e-05
-3.63407e-06
2.66566e-05
-1.50572e-05
-1.15994e-05
3.0495e-06
-7.60099e-07
-2.2894e-06
5.96469e-06
-9.90549e-06
3.9408e-06
1.02176e-05
-6.38144e-06
-3.83619e-06
3.81486e-06
-1.14531e-05
7.6382e-06
2.37776e-05
-2.65501e-05
2.77255e-06
2.05037e-05
-7.22506e-06
-1.32786e-05
-1.09542e-05
2.38508e-05
-1.28967e-05
-2.73867e-05
2.30459e-05
4.34081e-06
-1.25216e-05
9.86334e-07
1.15353e-05
4.25425e-06
-1.54364e-06
-2.71061e-06
-6.57807e-07
-8.31258e-06
8.97039e-06
1.12559e-05
-3.20883e-06
-8.04712e-06
1.63688e-05
-1.43744e-05
-1.99441e-06
6.40659e-06
-2.20709e-05
-2.49348e-05
4.0599e-05
2.79495e-05
-2.0289e-05
-1.73126e-05
9.65207e-06
1.02188e-05
-1.37089e-05
-5.79306e-07
4.06946e-06
2.38118e-05
-2.82037e-05
-2.80003e-06
7.19188e-06
2.92449e-05
-2.72405e-05
7.2578e-06
-9.26222e-06
1.96194e-05
-7.82077e-06
2.37771e-05
-3.55757e-05
-7.68477e-07
5.68793e-06
6.70921e-06
-1.16287e-05
-5.76915e-06
2.42174e-06
-8.34656e-06
1.1694e-05
2.22375e-06
-8.86536e-06
2.64813e-06
3.99348e-06
1.84464e-05
-2.48934e-05
-1.8868e-05
2.5315e-05
2.15713e-05
-1.44816e-05
1.47833e-06
-8.56798e-06
-1.39762e-06
2.13735e-05
3.60671e-05
-5.60429e-05
-3.31608e-05
3.95163e-05
2.64048e-05
-3.27603e-05
-4.28294e-05
4.55114e-05
-7.62662e-06
4.94464e-06
-4.25917e-05
2.93315e-05
-3.10352e-05
4.42955e-05
-1.08874e-05
-1.01027e-06
3.66608e-09
1.1894e-05
6.54577e-06
-1.26193e-05
-1.79467e-05
2.40202e-05
1.35474e-05
-1.00893e-05
1.5153e-05
-1.86111e-05
8.44669e-06
7.88162e-07
-9.23485e-06
1.55198e-05
-1.94764e-05
-5.16804e-05
5.5637e-05
1.56008e-05
-2.43958e-06
1.18301e-07
-1.32796e-05
-8.26954e-06
1.37868e-05
1.67814e-06
-7.19544e-06
-1.71709e-05
1.8013e-05
-1.11359e-05
1.02939e-05
-8.37332e-06
-1.62555e-05
-4.84368e-06
2.94725e-05
2.53415e-05
-2.31101e-05
4.44184e-05
-4.66498e-05
1.91453e-05
-9.40853e-06
1.86088e-05
-2.83455e-05
2.19515e-07
9.87847e-07
-1.32691e-05
1.20617e-05
3.32947e-06
-1.21699e-05
-1.29973e-05
2.18378e-05
1.88405e-05
-1.60612e-05
-2.67727e-05
2.39934e-05
6.84871e-06
3.32598e-06
1.77403e-05
-2.7915e-05
-1.796e-05
2.83117e-05
7.04261e-05
-8.07779e-05
-3.69807e-05
4.38199e-05
3.78938e-05
-4.47331e-05
-4.25225e-05
3.76243e-05
-5.19429e-06
1.00925e-05
-3.66075e-05
3.46014e-05
-5.0585e-05
5.2591e-05
-2.09773e-05
4.53084e-06
-2.83892e-05
4.48357e-05
6.07139e-06
-1.41165e-05
-3.06341e-05
3.86792e-05
2.31436e-05
-1.87001e-05
2.05097e-05
-2.49532e-05
-1.06703e-05
1.83972e-05
-7.72691e-06
1.19967e-05
2.02147e-06
-4.98924e-05
3.58743e-05
-1.60317e-05
1.81314e-05
2.14733e-05
-2.3573e-05
-1.53115e-05
2.21993e-05
4.91845e-06
-1.18062e-05
-1.90667e-05
-1.04151e-05
-8.57425e-06
3.8056e-05
4.98873e-05
-3.85654e-05
-4.95075e-05
3.81856e-05
3.32796e-05
-3.98751e-05
4.24806e-05
-3.58851e-05
4.12681e-05
-3.63525e-05
3.7052e-05
-4.19676e-05
2.77377e-05
-1.97808e-05
-5.71984e-06
-2.23704e-06
1.71918e-05
-1.81255e-05
-2.77628e-05
2.86965e-05
1.57324e-05
-6.27685e-06
-1.82835e-05
8.82795e-06
-2.21165e-06
1.33265e-05
3.90651e-05
-5.01799e-05
-2.28093e-05
3.03477e-05
8.90064e-05
-9.65448e-05
-4.10346e-05
4.17538e-05
5.25603e-05
-5.32794e-05
-3.96982e-05
3.03764e-05
-1.92833e-05
2.86051e-05
-2.06608e-05
1.6519e-05
-5.47863e-05
5.89281e-05
-1.46765e-05
8.97824e-06
-5.68664e-05
6.25647e-05
-3.2218e-07
-5.41139e-06
-4.65607e-05
5.22943e-05
6.99705e-06
-3.3343e-06
3.02476e-05
-3.39104e-05
-2.05606e-05
1.40803e-05
6.4803e-06
-1.13711e-05
3.2941e-05
-1.71786e-05
-4.39127e-06
-4.13535e-05
3.14106e-05
2.03129e-05
-1.037e-05
-1.59737e-05
1.00388e-05
1.76916e-05
-1.17566e-05
-9.80996e-06
-7.1597e-06
-6.94593e-05
8.64289e-05
1.45713e-05
-2.45307e-05
-4.24218e-05
5.23812e-05
3.04299e-05
-3.21606e-05
3.15208e-05
-2.979e-05
3.19941e-05
-3.17312e-05
4.26848e-05
-4.29478e-05
3.43553e-05
-3.46185e-05
7.63853e-06
-7.37528e-06
3.1234e-05
-2.34318e-05
-2.51851e-05
1.73829e-05
1.23911e-05
-5.54484e-06
2.69176e-06
-9.53806e-06
-3.19926e-06
1.47941e-05
6.0636e-05
-7.22308e-05
-1.67747e-05
2.24113e-05
0.000103615
-0.000109251
-2.53507e-05
2.34235e-05
5.17004e-05
-4.97732e-05
-2.04016e-05
1.26253e-05
-3.84947e-05
4.6271e-05
-4.81345e-06
8.53164e-06
-6.13922e-05
5.7674e-05
-1.91624e-05
1.49475e-05
-6.60587e-05
7.02736e-05
-7.10095e-06
4.524e-06
-5.59668e-05
5.85437e-05
-4.83777e-06
4.61501e-06
3.51638e-05
-3.49411e-05
-6.55013e-06
4.54448e-07
6.09568e-06
-1.81964e-05
1.91066e-05
1.75232e-05
-1.84334e-05
-1.88101e-05
1.80647e-05
9.02683e-07
-1.57248e-07
-1.27142e-05
9.49648e-07
1.76167e-06
1.00029e-05
8.25276e-06
-6.78103e-06
-9.08151e-05
8.93434e-05
-3.47367e-06
3.83834e-06
-6.0565e-05
6.02003e-05
7.2395e-06
-2.08107e-05
2.87787e-05
-1.52076e-05
2.6269e-05
-3.04007e-05
4.29542e-05
-3.88224e-05
3.31255e-05
-3.44892e-05
8.20542e-06
-6.84174e-06
3.54865e-05
-3.48296e-05
-1.18259e-05
1.11689e-05
2.65599e-05
-8.4044e-06
1.53839e-05
-3.35394e-05
-5.7849e-06
7.28363e-06
8.1041e-05
-8.25397e-05
9.22391e-08
-1.15647e-05
0.000106193
-9.4721e-05
1.96116e-05
-1.94473e-05
4.94803e-05
-4.96445e-05
1.2156e-05
-3.93242e-06
-4.64384e-05
3.82148e-05
-2.5881e-06
1.29636e-05
-4.88421e-05
3.84666e-05
-1.82209e-05
1.22363e-05
-7.5964e-05
8.19487e-05
-5.79938e-06
5.10396e-06
-6.07256e-05
6.1421e-05
-8.65649e-06
7.47615e-06
3.41995e-05
-3.30191e-05
7.62599e-06
-2.30964e-05
1.54704e-05
-2.43684e-05
3.20758e-05
2.41076e-05
-3.1815e-05
-3.29135e-05
3.14249e-05
-5.95171e-07
2.08376e-06
-2.7832e-05
2.02541e-05
-3.03222e-05
3.79002e-05
-1.59212e-05
2.35367e-05
-7.41762e-05
6.65607e-05
-3.4344e-05
3.7342e-05
-4.93035e-05
4.63056e-05
-2.62083e-05
3.59998e-06
-6.16524e-06
2.87735e-05
1.7142e-05
-3.3048e-05
2.8807e-05
-1.2901e-05
4.63579e-05
-5.26231e-05
2.97717e-07
5.9675e-06
5.16723e-05
-3.45915e-05
-3.42309e-06
-1.36577e-05
9.63606e-06
3.53667e-06
5.3494e-05
-6.66667e-05
-4.25103e-06
-4.13977e-06
7.85531e-05
-7.01623e-05
1.72865e-05
-3.00085e-05
8.07831e-05
-6.80611e-05
3.6495e-05
-3.09828e-05
5.2713e-05
-5.82252e-05
2.71177e-05
-2.11671e-05
-2.95727e-05
2.36221e-05
1.09848e-05
-3.9472e-06
-2.93899e-05
2.23523e-05
-7.79168e-07
2.48565e-06
-8.52027e-05
8.34962e-05
-7.4742e-07
6.22887e-06
-5.92806e-05
5.37991e-05
-1.18419e-05
8.98566e-06
3.10805e-05
-2.82243e-05
-6.0898e-05
4.18059e-05
1.90921e-05
-2.81889e-05
3.31128e-05
3.70554e-05
-4.19793e-05
-3.26495e-05
2.81824e-05
-3.94045e-06
8.40758e-06
-2.86081e-05
3.65405e-05
-3.57737e-05
2.78414e-05
-4.45153e-05
4.87605e-05
-6.28371e-05
5.8592e-05
-4.65496e-05
3.98944e-05
-4.9383e-05
5.60382e-05
-3.00764e-05
1.57378e-05
-4.7728e-05
6.20666e-05
2.13591e-06
-2.27964e-05
-7.34318e-06
2.80037e-05
4.35011e-05
-4.04698e-05
-1.56721e-05
1.26407e-05
2.21594e-05
-4.31107e-06
4.41924e-05
-6.20408e-05
-3.97621e-06
3.72685e-06
7.0943e-05
-7.06937e-05
3.17312e-06
-1.65692e-05
5.88344e-05
-4.54383e-05
2.81092e-05
-3.52465e-05
5.74047e-05
-5.02674e-05
3.6714e-05
-3.19243e-05
6.76375e-05
-7.24272e-05
2.01188e-05
-1.15233e-05
-1.84917e-05
9.89621e-06
1.17366e-05
-1.6697e-05
-2.24363e-05
2.73967e-05
1.56611e-05
-7.85262e-06
-7.90718e-05
7.12633e-05
6.84099e-06
4.76705e-06
-4.59639e-05
3.43559e-05
-1.32042e-05
6.85667e-06
2.37464e-05
-1.73989e-05
-3.16384e-05
3.15263e-05
1.12144e-07
3.26639e-06
-4.13086e-06
-2.96448e-05
3.05092e-05
2.65743e-06
-1.28612e-06
-2.29337e-05
2.15624e-05
4.03026e-06
-1.42394e-05
-4.07277e-06
1.4282e-05
2.42004e-05
-2.90415e-05
-1.64822e-05
2.13234e-05
3.20204e-05
-3.4483e-05
-1.39406e-05
1.64033e-05
3.64641e-05
-3.81703e-05
-1.17938e-05
1.35e-05
3.97527e-05
-4.12582e-05
-8.61657e-06
1.01221e-05
4.26483e-05
-4.38337e-05
-4.1666e-06
5.35192e-06
4.47165e-05
-4.51954e-05
1.6216e-06
-1.14271e-06
4.51725e-05
-4.46062e-05
8.78963e-06
-9.35594e-06
4.38513e-05
-4.34775e-05
1.8435e-05
-1.88088e-05
4.25457e-05
-3.8387e-05
3.05672e-05
-3.4726e-05
3.24491e-05
-3.07647e-05
3.08343e-05
-3.25188e-05
3.49552e-05
-4.12128e-05
2.52167e-05
-1.89592e-05
4.67526e-05
-4.86845e-05
1.58957e-05
-1.39638e-05
4.67828e-05
-4.37329e-05
5.78504e-06
-8.83498e-06
4.14132e-05
-3.89427e-05
5.45607e-06
-7.92659e-06
3.57688e-05
-3.15943e-05
9.86866e-06
-1.40432e-05
2.62798e-05
-1.9787e-05
7.18174e-06
-1.36745e-05
1.21709e-05
-4.00736e-06
-1.91539e-06
-6.24813e-06
-2.71912e-06
5.78094e-06
-1.12679e-05
8.20606e-06
-4.63293e-06
1.32126e-06
-1.05113e-05
1.38229e-05
-3.56841e-05
5.00933e-05
-1.44092e-05
5.02426e-06
-6.63797e-06
-3.11694e-05
3.27831e-05
1.00558e-05
-1.6244e-05
-2.39675e-05
3.01558e-05
2.42092e-05
-2.98259e-05
-2.49353e-05
3.0552e-05
3.18329e-05
-3.28581e-05
-2.3963e-05
2.49881e-05
3.42582e-05
-3.58001e-05
-1.84336e-05
1.99756e-05
3.73898e-05
-3.92094e-05
-1.5269e-05
1.70887e-05
4.14398e-05
-4.4058e-05
-1.20551e-05
1.46733e-05
4.6847e-05
-4.94519e-05
-7.11897e-06
9.72396e-06
5.1427e-05
-5.24167e-05
3.64745e-07
6.24957e-07
5.26896e-05
-5.43098e-05
9.16441e-06
-7.54416e-06
6.00256e-05
-7.09709e-05
1.32922e-05
-2.34686e-06
8.49333e-05
-9.02462e-05
3.46028e-05
-2.92898e-05
9.00626e-05
-9.8082e-05
2.2389e-05
-1.43696e-05
0.000123996
-0.000138296
-6.24537e-06
2.05461e-05
0.000141047
-0.00014007
7.69091e-06
-8.66762e-06
0.000137151
-0.000132453
1.49639e-05
-1.96617e-05
0.000125886
-0.000118893
2.26668e-05
-2.96594e-05
0.000115107
-0.000118925
2.41088e-05
-2.02905e-05
0.00012608
-0.000129433
2.16544e-05
-1.83012e-05
0.000127216
-0.00012162
1.89842e-05
-2.458e-05
0.000113378
-0.000103366
9.6663e-07
-1.09787e-05
9.80798e-05
-9.96449e-05
-1.61509e-05
1.7716e-05
-7.87076e-05
0.000113791
-3.50835e-05
3.45712e-05
-3.87916e-05
-3.65154e-05
4.07359e-05
4.32025e-05
-4.62054e-05
-3.56851e-05
3.86881e-05
4.71251e-05
-4.6651e-05
-3.12992e-05
3.08252e-05
4.58964e-05
-4.51578e-05
-2.4769e-05
2.40304e-05
4.42102e-05
-4.29292e-05
-2.03456e-05
1.90646e-05
4.14835e-05
-4.06949e-05
-1.81841e-05
1.73955e-05
4.14778e-05
-4.40227e-05
-1.78522e-05
2.03971e-05
4.7892e-05
-5.19978e-05
-1.34327e-05
1.75385e-05
5.50762e-05
-5.7753e-05
-1.93069e-06
4.60748e-06
6.09906e-05
-6.03486e-05
4.92913e-06
-5.57109e-06
4.87654e-05
-3.23236e-05
-3.33257e-06
-1.31092e-05
2.93197e-05
-5.69251e-05
1.69675e-05
1.0638e-05
9.06818e-05
-9.40734e-05
1.47988e-05
-1.14071e-05
7.68472e-05
-7.80315e-05
-3.7642e-05
3.88263e-05
9.52367e-05
-0.000112895
1.8108e-06
1.58478e-05
0.000130055
-0.000145925
1.62789e-05
-4.0934e-07
0.000155592
-0.000161625
2.98933e-05
-2.386e-05
0.000167697
-0.000166783
1.43247e-05
-1.52387e-05
0.000160837
-0.000156022
2.26466e-05
-2.74609e-05
0.00015485
-0.000157425
2.19055e-05
-1.93299e-05
0.000161819
-0.00016193
7.36704e-06
-7.25558e-06
0.000154192
-0.000139208
-1.00393e-05
-4.94464e-06
-0.000142105
0.000158263
-1.61581e-05
3.67404e-05
-4.73678e-05
-4.38342e-05
5.44615e-05
5.78173e-05
-6.8153e-05
-4.02515e-05
5.05871e-05
7.65646e-05
-8.01484e-05
-3.10483e-05
3.46321e-05
7.85116e-05
-7.38436e-05
-2.49833e-05
2.03152e-05
6.7414e-05
-5.78939e-05
-1.81288e-05
8.60865e-06
4.43751e-05
-3.66611e-05
-1.40728e-05
6.35882e-06
4.43659e-05
-5.35857e-05
-2.21289e-05
3.13487e-05
6.18638e-05
-6.97851e-05
-2.17475e-05
2.96688e-05
7.77062e-05
-8.02709e-05
-1.04917e-05
1.30564e-05
6.79743e-05
-4.70829e-05
2.0362e-05
-4.12533e-05
3.60508e-05
-2.88311e-05
3.27981e-05
-4.00179e-05
1.65232e-05
-6.77034e-06
-2.76943e-05
1.79414e-05
3.80428e-05
-8.29479e-05
-1.59759e-05
6.08811e-05
9.7786e-05
-8.80923e-05
-2.26198e-05
1.29261e-05
5.73612e-05
-1.1201e-06
-1.60897e-05
-4.01514e-05
-3.83157e-05
1.39377e-05
-2.88444e-05
5.32224e-05
4.83794e-05
-0.000109671
8.56429e-06
5.27276e-05
0.000147299
-0.000151259
1.33324e-05
-9.37249e-06
0.000150894
-0.000152176
2.86246e-05
-2.73428e-05
0.000152758
-0.000152242
2.39952e-05
-2.45117e-05
0.000150012
-0.000146277
1.21392e-05
-1.58746e-05
0.000140879
-0.000132983
8.82913e-06
-1.67254e-05
-0.000164074
0.000166043
-1.96864e-06
2.18074e-05
-3.76863e-05
-6.33019e-05
7.91808e-05
4.89994e-05
-5.71307e-05
-6.21933e-05
7.03246e-05
6.50162e-05
-7.44841e-05
-5.03977e-05
5.98655e-05
8.51128e-05
-9.59049e-05
-2.69854e-05
3.77775e-05
0.000102667
-0.000101752
-9.05706e-08
-8.24952e-07
0.000102975
-0.0001026
-3.16429e-06
2.78906e-06
0.000102474
-0.00010555
-3.15971e-05
3.4673e-05
0.00011164
-0.000116867
-3.6794e-05
4.20209e-05
0.000116758
-0.000114094
-8.23538e-06
5.57173e-06
0.000113456
-0.000114153
4.4514e-05
-4.38165e-05
0.000111098
-0.000109854
4.74483e-05
-4.8692e-05
0.000122076
-0.000110253
-4.20992e-06
-7.61331e-06
4.43373e-05
2.72863e-05
-8.32363e-05
1.16127e-05
-7.58944e-05
0.00010769
2.91618e-05
-6.09573e-05
-0.000125972
0.000113854
5.04319e-05
-3.83141e-05
-6.77764e-05
4.25987e-05
-6.30673e-05
8.8245e-05
-2.80125e-05
1.29484e-05
-9.17609e-05
0.000106825
1.10589e-05
-4.82133e-05
-3.46287e-05
7.17832e-05
9.58116e-05
-0.000130794
2.74019e-05
7.58015e-06
0.000135206
-0.000130177
2.78366e-05
-3.28656e-05
0.000120243
-0.000110208
1.86165e-05
-2.86515e-05
0.000106522
-0.000106838
2.16671e-05
-2.13506e-05
-0.00016801
0.000169965
-1.95502e-06
1.95413e-05
-3.61603e-05
-9.7791e-05
0.00011441
4.50339e-05
-4.69228e-05
-7.44671e-05
7.6356e-05
4.69634e-05
-4.88469e-05
-6.21049e-05
6.39884e-05
5.34983e-05
-5.94795e-05
-4.59188e-05
5.19001e-05
6.79337e-05
-8.2283e-05
-7.57433e-06
2.19236e-05
9.99577e-05
-0.000118357
-1.32807e-05
3.16799e-05
0.000135915
-0.000152714
-4.41984e-05
6.09972e-05
0.000168352
-0.000179287
-4.84777e-05
5.94127e-05
0.000171895
-0.000163607
-2.21639e-06
-6.07127e-06
0.00016265
-0.000165549
4.16289e-05
-3.873e-05
0.000170492
-0.000172214
3.70824e-05
-3.53602e-05
0.000168071
-0.000174616
7.10585e-06
-5.61252e-07
0.000162473
-0.000151712
4.91465e-05
-5.99075e-05
0.00014816
-0.000153441
6.91629e-05
-6.38826e-05
0.000154874
-0.000143654
4.20171e-05
-5.32369e-05
0.000102523
-5.74219e-05
-6.58512e-05
2.07503e-05
1.61449e-05
2.22821e-05
-8.91251e-05
5.0698e-05
-5.3377e-05
6.57589e-05
-9.09115e-05
7.85296e-05
-5.20861e-05
2.20648e-05
-6.22226e-05
9.22439e-05
2.21385e-05
-7.63718e-05
1.23193e-05
4.1914e-05
0.00010267
-0.00010936
3.78023e-05
-3.11115e-05
8.29705e-05
-7.13517e-06
4.22081e-05
-0.000118043
-0.000170735
0.000168996
1.73943e-06
1.34955e-05
-2.4487e-05
-0.000127919
0.000138911
3.21017e-05
-3.82437e-05
-7.93759e-05
8.55179e-05
4.27517e-05
-4.60532e-05
-6.84256e-05
7.17271e-05
4.5743e-05
-4.98299e-05
-5.32977e-05
5.73846e-05
6.29289e-05
-8.84476e-05
-4.09686e-05
6.64873e-05
0.000112894
-0.000132138
-5.3824e-05
7.30681e-05
0.00014783
-0.00016144
-7.89698e-05
9.25797e-05
0.000166059
-0.000160194
-6.02963e-05
5.4432e-05
0.000151933
-0.000146973
7.22544e-06
-1.21859e-05
0.000154852
-0.000165151
3.83575e-05
-2.80582e-05
0.000167196
-0.000169115
3.58208e-05
-3.39018e-05
0.00017211
-0.000169357
-1.52618e-06
-1.22719e-06
0.000163
-0.000155821
6.5596e-05
-7.27752e-05
0.000150885
-0.000146995
6.70935e-05
-7.09835e-05
0.000142125
-0.000138278
5.05086e-05
-5.43563e-05
0.000130816
-0.000108211
2.10866e-05
-4.36918e-05
6.81235e-05
-2.46843e-05
-3.89154e-06
-3.95477e-05
-2.11101e-05
6.41744e-05
-4.56972e-05
2.63289e-06
-9.47366e-05
0.000111652
-9.62926e-05
7.9377e-05
-0.000120623
0.000123968
-5.31384e-05
4.97935e-05
-0.000125346
0.000127878
6.30139e-05
-6.55466e-05
-0.000109252
7.73302e-05
9.86979e-05
-6.67762e-05
-0.000163393
0.000152865
1.05285e-05
3.80349e-06
-1.34453e-05
-0.0001488
0.000158441
2.23497e-05
-2.21144e-05
-9.08188e-05
9.05835e-05
2.20293e-05
-3.62953e-05
-7.21253e-05
8.63912e-05
5.86214e-05
-9.12811e-05
-7.41958e-05
0.000106856
0.000113007
-0.000127533
-8.93697e-05
0.000103895
0.000134864
-0.00013455
-8.51725e-05
8.48585e-05
0.000128638
-0.000112227
-8.78961e-05
7.14847e-05
9.5988e-05
-8.63095e-05
-4.01427e-05
3.04641e-05
8.95314e-05
-9.39761e-05
1.01437e-05
-5.69904e-06
9.44874e-05
-0.000100631
2.27317e-05
-1.65887e-05
0.000110983
-0.000113078
2.61098e-05
-2.4015e-05
9.87909e-05
-7.7163e-05
-2.14973e-07
-2.1413e-05
8.47566e-05
-0.000107856
6.87689e-05
-4.56692e-05
0.000132144
-0.000140143
7.33833e-05
-6.53844e-05
0.000137753
-0.000132096
5.92917e-05
-6.4948e-05
0.000126685
-0.000124387
4.96291e-05
-5.19277e-05
0.000126255
-0.00012834
4.49953e-05
-4.29106e-05
0.000127072
-0.000121509
2.08839e-05
-2.64467e-05
0.000109985
-8.83614e-05
-2.68459e-05
5.22265e-06
6.10415e-05
-3.64984e-05
-3.03829e-05
5.83984e-06
3.17712e-05
-5.09127e-05
4.17225e-05
-2.25809e-05
6.52248e-05
-7.36635e-05
3.02422e-05
-2.18035e-05
-0.000132989
9.5911e-05
3.70781e-05
-2.39499e-05
2.13938e-05
-0.000164741
0.000167297
-7.82162e-06
-2.1098e-05
-9.57108e-05
0.00012463
6.4738e-05
-0.000104019
-0.000116905
0.000156186
0.000127376
-0.000137853
-0.000127043
0.00013752
0.000141245
-0.000134052
-0.000107258
0.000100065
0.000132543
-0.000130803
-7.36128e-05
7.18722e-05
0.000120901
-9.89427e-05
-6.02995e-05
3.83412e-05
7.62212e-05
-5.86691e-05
-2.35671e-05
6.01497e-06
5.02061e-05
-5.04856e-05
3.03144e-06
-2.75196e-06
5.67598e-05
-6.65121e-05
1.00274e-05
-2.75053e-07
6.94267e-05
-6.53449e-05
2.48528e-05
-2.89347e-05
5.97994e-05
-5.8832e-05
3.20384e-05
-3.30059e-05
6.38895e-05
-7.06892e-05
3.61456e-05
-2.93459e-05
8.00458e-05
-9.35554e-05
4.41088e-05
-3.05992e-05
0.000106002
-0.000113679
6.38057e-05
-5.61285e-05
0.000116995
-0.000108104
6.19122e-05
-7.08032e-05
8.81427e-05
-7.69487e-05
3.88682e-05
-5.00622e-05
8.65492e-05
-0.000109264
2.39127e-05
-1.1976e-06
0.000126676
-0.000119022
8.51661e-06
-1.61703e-05
0.000106773
-9.89043e-05
1.23861e-06
-9.1069e-06
9.80122e-05
-9.71103e-05
1.94716e-05
-2.03735e-05
9.18228e-05
-8.41973e-05
2.90311e-05
-3.66566e-05
-4.96437e-05
7.34391e-05
-2.37953e-05
-6.24002e-05
3.60672e-05
-0.000165745
0.000192078
1.94938e-05
-7.46522e-05
-0.000182703
0.000237862
0.000106626
-0.000121088
-0.000187471
0.000201932
0.000113789
-9.76283e-05
-0.000135468
0.000119307
8.1311e-05
-7.44022e-05
-9.60998e-05
8.9191e-05
7.28046e-05
-7.33297e-05
-7.20037e-05
7.25288e-05
7.32062e-05
-7.17792e-05
-1.92034e-05
1.77764e-05
7.29572e-05
-7.2713e-05
9.16375e-07
-1.16066e-06
6.99117e-05
-7.16111e-05
1.6289e-06
7.04893e-08
7.66835e-05
-7.28651e-05
2.77839e-06
-6.59676e-06
5.55415e-05
-3.54156e-05
4.23652e-05
-6.24911e-05
1.97923e-05
-1.67482e-05
3.33445e-05
-3.63886e-05
2.85132e-05
-4.13968e-05
1.87788e-05
-5.8952e-06
5.06636e-05
-5.46664e-05
2.26068e-05
-1.8604e-05
5.4368e-05
-5.36632e-05
4.60103e-05
-4.6715e-05
5.87689e-05
-6.89365e-05
7.56171e-05
-6.54496e-05
6.72295e-05
-5.24738e-05
7.36683e-05
-8.84241e-05
4.21029e-05
-6.22091e-05
-2.56288e-05
4.5735e-05
8.2962e-05
-0.000106111
-1.95698e-06
2.51065e-05
0.00012145
-0.000125202
9.88487e-06
-6.13252e-06
0.000119714
-0.000109971
1.9613e-05
-2.93552e-05
0.000103255
-9.75774e-05
4.00419e-05
-4.57194e-05
-0.000135426
0.000196858
-6.14322e-05
8.4696e-05
-0.00010152
-0.000214367
0.000231191
0.000111063
-0.000112573
-0.000257254
0.000258763
8.97045e-05
-4.87781e-05
-0.000186435
0.000145509
7.79017e-06
2.14682e-05
-9.08565e-05
6.15982e-05
-3.50236e-05
4.09187e-05
-7.94533e-05
7.35583e-05
-4.43366e-05
4.03923e-05
-6.43051e-05
6.82494e-05
-1.93316e-05
-1.51941e-05
-4.20133e-05
7.65391e-05
3.75811e-05
-5.12606e-05
-1.21418e-05
2.58214e-05
7.16081e-05
-8.87192e-05
-1.00779e-05
2.71889e-05
9.09069e-05
-6.7558e-05
1.7405e-05
-4.07539e-05
4.99513e-05
-4.81097e-05
6.95761e-05
-7.14178e-05
5.03177e-05
-5.22714e-05
4.94245e-05
-4.74708e-05
3.67964e-05
-3.12982e-05
-4.26516e-06
-1.23309e-06
4.36989e-05
-4.98223e-05
1.30946e-05
-6.97112e-06
4.69545e-05
-3.67869e-05
5.3491e-05
-6.36587e-05
2.45744e-05
-2.33e-05
6.00415e-05
-6.13159e-05
4.63517e-05
-6.7359e-05
8.05327e-05
-5.95254e-05
7.88809e-05
-7.68909e-05
-4.37156e-05
4.17255e-05
9.07155e-05
-9.69559e-05
-4.23428e-05
4.85831e-05
9.66306e-05
-9.13016e-05
7.83524e-06
-1.31643e-05
8.33736e-05
-7.55566e-05
3.92278e-05
-4.70448e-05
7.0333e-05
-6.71144e-05
5.18355e-05
-5.50542e-05
-0.000242746
0.000281755
-3.901e-05
6.88212e-05
-9.02693e-05
-0.00024833
0.000269778
0.000115322
-0.000135688
-0.000250166
0.000270532
0.000119724
-7.64313e-05
-0.000109641
6.63478e-05
5.96142e-05
-6.07209e-05
-2.9226e-05
3.03328e-05
3.56176e-05
-1.36788e-05
-8.0976e-05
5.90372e-05
9.23802e-06
-1.36456e-05
-6.44671e-05
6.88746e-05
1.61574e-05
-2.89177e-05
-0.000113651
0.000126411
6.04821e-05
-9.00908e-05
-4.49991e-05
7.46079e-05
0.000118027
-0.000127761
-5.47463e-05
6.44808e-05
8.47964e-05
-6.96534e-05
7.21155e-05
-8.72585e-05
6.7445e-05
-6.6768e-05
7.35552e-05
-7.42322e-05
6.47323e-05
-6.23069e-05
4.57241e-05
-4.81494e-05
6.11823e-05
-5.62031e-05
1.80763e-05
-2.30555e-05
6.10902e-05
-6.65124e-05
-5.3379e-07
5.95599e-06
6.28315e-05