/*--------------------------------*- C++ -*----------------------------------*\
| =========                 |                                                 |
| \\      /  F ield         | OpenFOAM: The Open Source CFD Toolbox           |
|  \\    /   O peration     | Version:  v1912                                 |
|   \\  /    A nd           | Website:  www.openfoam.com                      |
|    \\/     M anipulation  |                                                 |
\*---------------------------------------------------------------------------*/
FoamFile
{
    version     2.0;
    format      ascii;
    class       volVectorField;
    location    "0.85";
    object      U;
}
// * * * * * * * * * * * * * * * * * * * * * * * * * * * * * * * * * * * * * //

dimensions      [0 1 -1 0 0 0 0];


internalField   nonuniform List<vector> 
9072
(
(-0.024746 0.0199423 0)
(-0.0663389 0.00461888 0)
(-0.123202 0.00995072 0)
(-0.202295 0.0094696 0)
(-0.224352 0.000345143 0)
(-0.238721 -0.000418784 0)
(-0.263124 0.00259049 0)
(-0.294207 0.00382312 0)
(-0.318806 0.00275906 0)
(-0.333957 0.0026299 0)
(-0.330068 -0.0039464 0)
(-0.281727 -0.0178695 0)
(-0.246522 -0.00543375 0)
(-0.296587 0.0211271 0)
(-0.258998 -0.0112058 0)
(-0.126159 -0.0220547 0)
(0.0176228 -0.0250634 0)
(0.135957 -0.00631972 0)
(-0.0204445 0.0380668 0)
(-0.311353 0.0109021 0)
(-0.157194 -0.0219038 0)
(-0.039808 -0.0126687 0)
(0.015211 -0.00585398 0)
(-0.0350905 0.0755628 0)
(-0.128482 0.0434084 0)
(-0.219071 0.0421234 0)
(-0.252134 0.0128639 0)
(-0.245856 0.0110602 0)
(-0.273009 0.0226277 0)
(-0.313546 0.0220637 0)
(-0.343145 0.014907 0)
(-0.358794 0.0077816 0)
(-0.360024 0.000692171 0)
(-0.361309 -0.00539723 0)
(-0.385242 -0.000140353 0)
(-0.38123 -0.00491437 0)
(-0.274899 -0.0365327 0)
(-0.164634 -0.0602393 0)
(-0.128068 -0.0477668 0)
(-0.164039 -0.050286 0)
(-0.226575 0.0193827 0)
(-0.289949 0.137302 0)
(-0.132764 -0.0508034 0)
(-0.0358324 -0.0805711 0)
(0.000311603 -0.0316647 0)
(0.00332552 -0.0115496 0)
(-0.0325513 0.12718 0)
(-0.117642 0.0871422 0)
(-0.249125 0.0866635 0)
(-0.309162 0.0142164 0)
(-0.270861 0.0054585 0)
(-0.272711 0.0334057 0)
(-0.29784 0.0367719 0)
(-0.328588 0.0274258 0)
(-0.350404 0.0130707 0)
(-0.353152 -0.00184579 0)
(-0.335506 -0.00786689 0)
(-0.293551 -0.00895892 0)
(-0.217372 -0.0396135 0)
(-0.135558 -0.0814059 0)
(-0.0888361 -0.0853026 0)
(-0.0558323 -0.0464493 0)
(-0.0602154 -0.00614971 0)
(-0.130545 0.0443807 0)
(-0.0745287 0.0633592 0)
(0.0659635 -0.0957236 0)
(0.0378811 -0.0845521 0)
(0.0177278 -0.0304153 0)
(0.00506721 -0.00576306 0)
(-0.0292369 0.174161 0)
(-0.12109 0.142263 0)
(-0.285657 0.148158 0)
(-0.331625 0.00637999 0)
(-0.292763 -0.0100854 0)
(-0.289862 0.0417023 0)
(-0.316963 0.050571 0)
(-0.345426 0.0399337 0)
(-0.3635 0.0187988 0)
(-0.365489 -0.00540459 0)
(-0.344749 -0.025574 0)
(-0.287465 -0.0451286 0)
(-0.205718 -0.0793636 0)
(-0.135972 -0.107438 0)
(-0.0860224 -0.101647 0)
(-0.0465426 -0.0640891 0)
(-0.0055386 -0.0123862 0)
(0.0421726 0.0370332 0)
(0.125198 0.00873545 0)
(0.132682 -0.0811129 0)
(0.0616806 -0.0614877 0)
(0.0257103 -0.0198343 0)
(0.00245309 -3.00704e-05 0)
(-0.0261824 0.219181 0)
(-0.124644 0.205676 0)
(-0.269153 0.202375 0)
(-0.287894 -0.00067177 0)
(-0.282176 -0.0164071 0)
(-0.302897 0.0520378 0)
(-0.334314 0.0647449 0)
(-0.361365 0.0507526 0)
(-0.377164 0.0231587 0)
(-0.3776 -0.00955336 0)
(-0.35631 -0.0427563 0)
(-0.303646 -0.0781471 0)
(-0.224006 -0.117736 0)
(-0.140607 -0.139681 0)
(-0.0725147 -0.125977 0)
(-0.0227416 -0.0825663 0)
(0.0127124 -0.031843 0)
(0.0565594 0.00193032 0)
(0.120342 -0.0151367 0)
(0.12013 -0.0572984 0)
(0.0739059 -0.0394496 0)
(0.038022 -0.00627857 0)
(0.00757675 0.00774822 0)
(-0.0226975 0.262258 0)
(-0.116068 0.261285 0)
(-0.210135 0.237114 0)
(-0.215439 -0.00437778 0)
(-0.24548 0.00205012 0)
(-0.311124 0.0693923 0)
(-0.349759 0.0798979 0)
(-0.377317 0.0610653 0)
(-0.393229 0.027219 0)
(-0.394422 -0.0138807 0)
(-0.374517 -0.0593033 0)
(-0.324507 -0.109974 0)
(-0.240602 -0.160498 0)
(-0.139043 -0.18018 0)
(-0.050782 -0.156789 0)
(0.00944532 -0.101704 0)
(0.0363515 -0.0451408 0)
(0.0615518 -0.0201043 0)
(0.104085 -0.0318165 0)
(0.116286 -0.0454176 0)
(0.0883852 -0.0214973 0)
(0.0481981 0.0103353 0)
(0.0117332 0.0194717 0)
(-0.0170785 0.301591 0)
(-0.0981684 0.297949 0)
(-0.134785 0.254589 0)
(-0.133349 -0.00319785 0)
(-0.218513 0.0494297 0)
(-0.319324 0.0963281 0)
(-0.364952 0.0964174 0)
(-0.393984 0.0716591 0)
(-0.4118 0.0319538 0)
(-0.416022 -0.017173 0)
(-0.399699 -0.0744467 0)
(-0.352318 -0.141914 0)
(-0.256316 -0.211745 0)
(-0.121727 -0.233416 0)
(-0.0119965 -0.198414 0)
(0.0628408 -0.123235 0)
(0.0835883 -0.0498401 0)
(0.0837412 -0.0326397 0)
(0.116614 -0.0497678 0)
(0.149501 -0.0438968 0)
(0.13343 -0.00442454 0)
(0.0721624 0.0346705 0)
(0.00813235 0.0345943 0)
(-0.00386803 0.333462 0)
(-0.0790778 0.314838 0)
(-0.0665351 0.255508 0)
(-0.0730884 0.0100296 0)
(-0.233886 0.121912 0)
(-0.332342 0.128015 0)
(-0.380178 0.113965 0)
(-0.410975 0.0832145 0)
(-0.432536 0.0383243 0)
(-0.441519 -0.0185887 0)
(-0.430306 -0.0875808 0)
(-0.387332 -0.174627 0)
(-0.273271 -0.279144 0)
(-0.123037 -0.292545 0)
(-0.0228555 -0.239912 0)
(0.0666953 -0.14845 0)
(0.105659 -0.0478162 0)
(0.120651 -0.0406083 0)
(0.190085 -0.0808933 0)
(0.262877 -0.0592713 0)
(0.262221 0.0218653 0)
(0.165032 0.0841991 0)
(0.0292626 0.0658681 0)
(0.0313666 -0.120381 0)
(0.08726 0.0201309 0)
(-0.663982 0.096154 0)
(-0.805299 0.000743728 0)
(-0.85404 -0.0159685 0)
(-0.849828 -0.0135735 0)
(-0.478957 -0.0505245 0)
(0.0214727 0.00458008 0)
(-0.202657 0.0166862 0)
(-0.199094 -0.0337002 0)
(-0.0794902 0.0149758 0)
(-0.659511 0.0215318 0)
(-0.349781 -0.0406897 0)
(0.413501 -0.029912 0)
(0.623537 -0.00710319 0)
(0.130513 0.0422976 0)
(-0.135267 -0.0153926 0)
(-0.0536831 0.0425626 0)
(-0.145966 -0.0326 0)
(-0.0552415 -0.161793 0)
(-0.355505 0.32007 0)
(-0.619493 0.162172 0)
(-0.200197 0.0249459 0)
(-0.645792 -0.00118023 0)
(-0.651823 -0.109249 0)
(-0.300556 -0.289691 0)
(0.0765389 -0.0946825 0)
(0.102025 0.102943 0)
(-0.0982355 -0.000978661 0)
(-0.559123 0.226959 0)
(-0.415452 -0.0408085 0)
(0.322327 -0.471506 0)
(0.834976 -0.319151 0)
(1.01308 0.0323341 0)
(0.904292 0.391572 0)
(0.0197525 0.045659 0)
(-0.261884 0.204371 0)
(-0.283429 -0.170963 0)
(-0.161978 -0.0377574 0)
(-0.53527 0.531144 0)
(-0.275729 -0.0465183 0)
(0.207092 -0.0951433 0)
(0.404861 0.0918513 0)
(-0.00441881 0.13825 0)
(-0.52184 -0.461954 0)
(-0.368084 -0.234213 0)
(0.0372951 0.13099 0)
(-0.145506 0.167084 0)
(-0.482952 0.258734 0)
(-0.0983896 -0.221902 0)
(0.561251 -0.744028 0)
(0.919246 -0.423025 0)
(0.927708 0.0323106 0)
(0.856026 0.484266 0)
(0.269995 0.359686 0)
(-0.26011 0.334046 0)
(-0.596558 -0.218361 0)
(-0.143128 0.147393 0)
(-0.291162 0.448445 0)
(0.457144 -0.216377 0)
(0.326819 -0.0528862 0)
(0.519369 0.122069 0)
(-0.862688 0.366701 0)
(-0.834539 -0.379333 0)
(-0.91863 -0.368674 0)
(-0.522116 0.0266473 0)
(-0.381748 0.290699 0)
(-0.308235 0.138408 0)
(0.0996801 -0.437916 0)
(0.566392 -0.900956 0)
(1.0135 -0.513865 0)
(0.860933 0.228508 0)
(0.369909 0.554152 0)
(0.331736 0.589358 0)
(-0.0999646 0.488252 0)
(-0.139191 -0.317602 0)
(-0.00626693 0.186996 0)
(0.494403 0.124082 0)
(1.02011 -0.148648 0)
(0.230546 -0.15982 0)
(0.163128 0.775402 0)
(-0.478647 0.608697 0)
(-0.687082 -0.297671 0)
(-0.730271 -0.423354 0)
(-0.817985 -0.090085 0)
(-0.62807 0.210512 0)
(-0.162302 -0.0799394 0)
(0.250716 -0.656735 0)
(0.358344 -1.05112 0)
(0.664611 -0.5038 0)
(0.44551 0.404949 0)
(-0.0155589 0.598316 0)
(0.490087 0.662168 0)
(0.0850186 0.554181 0)
(0.128866 -0.342553 0)
(0.0640563 0.0233248 0)
(0.440441 -0.153799 0)
(0.436913 0.00876944 0)
(0.173997 0.0154329 0)
(-0.244185 0.908374 0)
(-0.0384771 0.622194 0)
(-0.413866 -0.245362 0)
(-0.695029 -0.396337 0)
(-0.787695 -0.0974094 0)
(-0.796446 0.120978 0)
(-0.444461 -0.216632 0)
(0.214246 -0.812118 0)
(-0.124682 -0.98264 0)
(-0.439532 -0.456369 0)
(-0.150041 0.436368 0)
(0.143114 0.431493 0)
(0.446811 0.759128 0)
(0.0777869 0.600847 0)
(0.234153 -0.325162 0)
(0.180107 -0.122651 0)
(0.677021 -0.264696 0)
(0.754066 0.0120088 0)
(0.569566 0.36238 0)
(0.38123 0.659576 0)
(0.873063 0.458601 0)
(0.333766 0.176627 0)
(-0.618514 -0.211315 0)
(-1.1645 0.0117523 0)
(-1.07185 0.000966679 0)
(0.00882816 -0.603136 0)
(0.0416555 -0.730538 0)
(-0.578404 -0.718979 0)
(-0.794419 -0.526177 0)
(-0.567291 0.252649 0)
(-0.0865848 0.22607 0)
(0.210368 0.841194 0)
(0.0851983 0.5658 0)
(0.319987 -0.285994 0)
(0.400154 -0.527502 0)
(0.692135 -0.383546 0)
(0.724228 0.0404233 0)
(0.700714 0.316486 0)
(1.1017 0.576106 0)
(0.990372 0.496874 0)
(0.537326 0.544369 0)
(-0.301207 0.172427 0)
(-1.16955 0.136885 0)
(-0.246296 -0.54251 0)
(0.111058 -0.692274 0)
(-0.202827 -0.510375 0)
(-0.783756 -0.517122 0)
(-0.831159 -0.703772 0)
(-0.310477 0.145377 0)
(-0.290966 0.23854 0)
(-0.113219 0.754128 0)
(-0.113408 0.394803 0)
(0.302569 -0.204956 0)
(0.00539711 0.334911 0)
(-0.050064 0.324971 0)
(-0.0195745 0.240454 0)
(-0.076634 0.0910392 0)
(-0.295754 0.210282 0)
(-0.358869 0.164819 0)
(-0.400877 0.136463 0)
(-0.434747 0.100207 0)
(-0.464551 0.0498511 0)
(-0.483575 -0.0161556 0)
(-0.483316 -0.0986543 0)
(-0.467223 -0.209651 0)
(-0.441658 -0.354949 0)
(-0.329083 -0.369017 0)
(-0.403113 -0.277155 0)
(-0.531018 -0.163851 0)
(-0.481729 -0.068489 0)
(-0.423121 -0.0520916 0)
(-0.36995 -0.0966753 0)
(-0.255256 -0.0872335 0)
(-0.0857049 0.00643398 0)
(0.055625 0.135649 0)
(0.0396585 0.162666 0)
(-0.138962 0.435864 0)
(-0.0590677 0.340422 0)
(-0.13171 0.284857 0)
(-0.302572 0.315517 0)
(-0.345845 0.269167 0)
(-0.375921 0.210062 0)
(-0.410042 0.174608 0)
(-0.457676 0.141246 0)
(-0.517264 0.0867551 0)
(-0.560068 0.000165938 0)
(-0.566065 -0.0958533 0)
(-0.695769 -0.0971262 0)
(-0.955352 -0.375193 0)
(-0.971496 -0.141946 0)
(-1.44833 0.210759 0)
(-1.52171 -0.093255 0)
(-1.45063 -0.220936 0)
(-1.30831 -0.319392 0)
(-1.237 -0.28747 0)
(-1.39219 -0.223959 0)
(-1.33197 -0.264441 0)
(-1.21279 -0.0674708 0)
(-0.996275 0.197109 0)
(-0.341222 0.874442 0)
(-0.387935 0.404435 0)
(-0.487121 0.394545 0)
(-0.504493 0.319381 0)
(-0.488463 0.251714 0)
(-0.467732 0.209946 0)
(-0.437953 0.193267 0)
(-0.453511 0.211372 0)
(-0.536777 0.166464 0)
(-0.603594 0.027754 0)
(-0.672446 -0.0377111 0)
(-0.42621 0.0455969 0)
(-0.388969 -0.0734523 0)
(-1.07917 -0.193633 0)
(-0.730407 0.538891 0)
(-1.12209 0.0637648 0)
(-1.49212 -0.164656 0)
(-1.69879 -0.325479 0)
(-1.82964 -0.149595 0)
(-1.69238 -0.286625 0)
(-1.66324 -0.175962 0)
(-1.76849 -0.0469982 0)
(-1.56243 -0.0122078 0)
(-0.196965 1.75558 0)
(-0.455975 0.531616 0)
(-0.675544 0.460136 0)
(-0.862853 0.323875 0)
(-0.82444 0.263195 0)
(-0.649882 0.176305 0)
(-0.436902 0.0858583 0)
(-0.527688 0.289993 0)
(-0.701242 0.270195 0)
(-0.872968 0.159498 0)
(-0.632242 -0.357034 0)
(-0.341097 -0.393867 0)
(-0.10482 0.11789 0)
(-0.689236 0.370543 0)
(-1.03146 0.162113 0)
(-0.38997 0.0745161 0)
(0.479392 0.576118 0)
(-0.911484 0.112988 0)
(-1.58614 -0.14473 0)
(-1.62652 -0.301521 0)
(-1.6396 -0.26857 0)
(-1.5956 -0.13671 0)
(-1.47723 -0.102656 0)
(0.00484688 1.76339 0)
(-0.357171 0.757697 0)
(-0.576109 0.729173 0)
(-0.744713 0.616317 0)
(-0.981231 0.343357 0)
(-1.07938 -0.0568449 0)
(-1.12833 0.012619 0)
(-1.10567 0.344309 0)
(-1.23391 0.420446 0)
(-1.22488 0.0678895 0)
(-1.22926 -0.466966 0)
(-1.23082 -0.561518 0)
(-1.42613 -0.0521639 0)
(0.107425 0.91576 0)
(1.15612 -0.542689 0)
(1.2929 -0.639841 0)
(0.49694 0.716155 0)
(0.220545 1.12851 0)
(-0.327917 0.589823 0)
(-1.30195 -0.248238 0)
(-1.43125 -0.32724 0)
(-1.23764 -0.227212 0)
(-1.13186 -0.198657 0)
(0.0404486 1.82777 0)
(-0.337793 1.14919 0)
(-0.500469 0.817829 0)
(-0.505716 0.668663 0)
(-0.622795 0.535949 0)
(-0.715393 0.178257 0)
(-1.20746 0.233251 0)
(-1.54755 0.56144 0)
(-1.91729 0.528944 0)
(-1.78101 -0.00610537 0)
(-1.75436 -0.432146 0)
(-1.85995 -0.367278 0)
(-1.83749 0.103999 0)
(-1.68876 -0.588508 0)
(-1.60669 -0.660865 0)
(-1.67958 -0.5636 0)
(-0.798247 0.60457 0)
(0.0447964 0.841433 0)
(0.685807 1.0058 0)
(0.460182 0.922319 0)
(-0.564448 0.127432 0)
(-1.17989 -0.423838 0)
(-0.69174 -0.712947 0)
(0.0540931 1.8409 0)
(-0.230163 1.4481 0)
(-0.369952 0.88531 0)
(-0.488882 0.755245 0)
(-0.435349 0.608536 0)
(-0.872596 0.558096 0)
(-1.3348 0.688418 0)
(-1.69646 0.940638 0)
(-1.70684 0.754582 0)
(-1.57678 -0.0334287 0)
(-1.73444 -0.430376 0)
(-1.80325 -0.370737 0)
(-1.84854 -0.0882628 0)
(-1.70874 -0.759654 0)
(-1.60096 -0.745194 0)
(-1.48983 -0.550685 0)
(-1.35955 -0.4258 0)
(-0.460457 -0.327369 0)
(0.441691 0.227195 0)
(1.17418 1.06419 0)
(1.31103 0.677558 0)
(1.40715 -0.667499 0)
(0.986517 -0.895683 0)
(0.101756 1.73353 0)
(-0.103767 1.66668 0)
(-0.250635 0.973205 0)
(-0.240834 0.854505 0)
(-0.846253 0.994057 0)
(-1.31656 1.04985 0)
(-1.48405 0.944636 0)
(-1.27764 0.864113 0)
(-0.954542 0.34274 0)
(-0.987989 -0.091897 0)
(-1.03496 -0.230103 0)
(-1.23722 -0.256726 0)
(-0.923223 -0.121373 0)
(-1.0081 -0.649997 0)
(-1.49481 -0.778762 0)
(-1.45218 -0.657656 0)
(-1.33809 -0.515758 0)
(-1.36431 -0.465439 0)
(-1.35717 -0.250318 0)
(-1.08021 0.0764248 0)
(-0.467644 0.0235555 0)
(-0.512225 -0.318435 0)
(-0.779488 -0.181036 0)
(0.211606 1.28893 0)
(0.2649 1.84233 0)
(0.0992712 1.1926 0)
(-0.955894 1.47881 0)
(-1.475 1.42231 0)
(-1.52443 1.12915 0)
(-1.40226 0.754333 0)
(-1.19322 0.519711 0)
(-0.724562 0.122342 0)
(-0.499164 -0.0454443 0)
(-0.669143 -0.0355493 0)
(-0.727277 -0.268966 0)
(-0.624323 -0.352293 0)
(-0.717413 -0.371222 0)
(-0.928021 -0.381652 0)
(-1.20522 -0.677888 0)
(-1.2256 -0.760807 0)
(-0.816412 -0.399751 0)
(-1.0827 -0.212624 0)
(-1.32621 -0.202008 0)
(-1.07976 -0.101202 0)
(-1.06031 -0.232168 0)
(-0.941837 -0.329517 0)
(-0.192521 0.499236 0)
(0.681372 1.82181 0)
(-0.589246 2.36093 0)
(-1.30692 2.09527 0)
(-1.1451 1.4004 0)
(-0.810492 1.04013 0)
(-0.74264 0.776359 0)
(-0.777389 0.136613 0)
(-0.779515 -0.0574792 0)
(-0.748047 -0.0184752 0)
(-0.834324 -0.0671605 0)
(-0.473083 -0.581527 0)
(-0.183787 -0.34156 0)
(-0.37867 -0.133206 0)
(-0.582602 -0.220586 0)
(-0.570652 -0.47674 0)
(-0.696777 -0.749567 0)
(-0.674828 -0.930373 0)
(-0.394436 0.334521 0)
(-1.01408 0.161169 0)
(-1.36876 -0.100704 0)
(-1.22289 -0.222055 0)
(-1.08599 -0.424216 0)
(-0.585196 1.80635 0)
(-1.03879 2.43994 0)
(-1.26219 2.80373 0)
(-0.752375 1.85792 0)
(0.0922002 0.879441 0)
(0.427152 0.789886 0)
(0.489907 0.711261 0)
(0.00795779 0.639752 0)
(-0.435578 0.212161 0)
(-0.894733 0.184705 0)
(-0.868148 -0.251663 0)
(-0.533923 -0.749622 0)
(-0.562688 -0.513562 0)
(-0.289566 0.0612713 0)
(-0.524669 -0.107069 0)
(-0.458782 -0.637316 0)
(-0.148291 -0.618371 0)
(-0.668939 -0.781345 0)
(-0.824506 0.186103 0)
(-1.07128 0.504228 0)
(-1.01966 -0.102852 0)
(-0.845063 -0.46009 0)
(-0.73347 -0.576645 0)
(-0.328589 2.84089 0)
(-0.912788 2.72243 0)
(-1.25604 2.7096 0)
(-1.17304 1.10525 0)
(-0.88215 0.364546 0)
(-0.149085 0.815014 0)
(-0.0528763 0.837962 0)
(-0.0649515 1.44525 0)
(-0.816714 0.518044 0)
(-1.47175 0.719746 0)
(-0.776205 -0.913208 0)
(-0.727545 -0.807451 0)
(-0.682292 -0.510952 0)
(-0.637147 -0.294694 0)
(-0.694215 0.0418597 0)
(-0.593784 -0.823061 0)
(-0.57871 -0.87946 0)
(-0.597399 0.0308812 0)
(-1.26589 0.564424 0)
(-1.13076 0.396856 0)
(-0.797865 -0.325845 0)
(-0.637067 -0.603107 0)
(-0.607798 -0.600157 0)
(-0.348925 3.73232 0)
(-1.40957 3.99455 0)
(-2.96609 3.17268 0)
(-1.77029 0.261636 0)
(-1.74401 0.309189 0)
(-1.55055 0.435872 0)
(-1.46525 0.540622 0)
(-1.6025 1.48613 0)
(-2.06242 1.36061 0)
(-1.27863 0.229054 0)
(-1.08418 -0.97161 0)
(-1.11106 -0.751005 0)
(-1.22119 -0.542137 0)
(-1.41044 -0.0251813 0)
(-0.989562 -0.0803189 0)
(-0.725854 -0.949832 0)
(-0.822035 -0.769237 0)
(-1.15135 0.51248 0)
(-1.23878 0.691205 0)
(-0.842691 0.0114074 0)
(-0.603265 -0.532092 0)
(-0.552938 -0.636653 0)
(-0.578513 -0.576177 0)
(-0.401008 4.79178 0)
(-2.00948 6.57287 0)
(-2.1985 1.76024 0)
(-2.16617 0.143002 0)
(-2.34673 0.228491 0)
(-2.91653 0.621203 0)
(-4.11877 1.45299 0)
(-3.9325 1.46186 0)
(-2.77536 0.284055 0)
(-1.87363 -0.71655 0)
(-1.30959 -1.12437 0)
(-1.05027 -0.744238 0)
(-0.900327 -0.455685 0)
(-0.689362 -0.353471 0)
(-0.345819 -0.228918 0)
(-0.719266 -0.834472 0)
(-0.838988 -0.576623 0)
(-1.00147 0.411674 0)
(-0.810955 0.492954 0)
(-0.472374 -0.253133 0)
(-0.488363 -0.574279 0)
(-0.506779 -0.613613 0)
(-0.553233 -0.54455 0)
(-0.298161 5.31326 0)
(-1.11453 7.1998 0)
(-0.555631 2.23753 0)
(-3.09324 0.953806 0)
(-4.46301 1.66028 0)
(-4.8577 1.39522 0)
(-4.21695 0.917953 0)
(-3.22934 0.3098 0)
(-2.27808 -0.597275 0)
(-1.61724 -1.31454 0)
(-1.3825 -1.52911 0)
(-1.13718 -1.05379 0)
(-0.788151 -0.689376 0)
(-0.448163 -0.755231 0)
(-0.267091 -0.35244 0)
(-0.482692 -0.422457 0)
(-0.731377 -0.538796 0)
(-0.672625 0.498507 0)
(-0.630198 0.214983 0)
(-0.462721 -0.32559 0)
(-0.447099 -0.557253 0)
(-0.501566 -0.561341 0)
(-0.546463 -0.510047 0)
(-0.30891 6.33351 0)
(-0.992231 7.32652 0)
(-3.29324 4.72061 0)
(-6.55572 3.07684 0)
(-5.43992 1.42023 0)
(-3.86889 0.484384 0)
(-2.59656 -0.0923107 0)
(-1.60902 -0.648202 0)
(-0.96404 -1.26625 0)
(-0.671451 -1.6319 0)
(-0.643282 -1.56966 0)
(-0.640623 -1.24398 0)
(-0.522329 -0.979244 0)
(-0.370144 -0.900404 0)
(-0.342256 -0.52923 0)
(-0.321374 -0.031116 0)
(-0.575649 -0.339869 0)
(-0.683307 0.621792 0)
(-0.650192 0.00233876 0)
(-0.466514 -0.420644 0)
(-0.477159 -0.516312 0)
(-0.529004 -0.509481 0)
(-0.551888 -0.492652 0)
(0.0673881 5.62807 0)
(-1.08374 8.64947 0)
(-4.12366 8.33657 0)
(-4.907 2.86934 0)
(-5.1702 -0.196748 0)
(-3.84025 -1.70876 0)
(-1.7171 -1.66354 0)
(-0.363533 -1.35859 0)
(0.064186 -1.47782 0)
(0.000312515 -1.59715 0)
(-0.19154 -1.46155 0)
(-0.324098 -1.22722 0)
(-0.321077 -1.11411 0)
(-0.367614 -0.878775 0)
(-0.516775 -0.509193 0)
(-0.376613 -0.233862 0)
(-0.915235 0.216502 0)
(-0.908688 0.415213 0)
(-0.570496 -0.178303 0)
(-0.509864 -0.440816 0)
(-0.547448 -0.470167 0)
(-0.569082 -0.484413 0)
(-0.562257 -0.498043 0)
(0.415893 3.83699 0)
(1.8293 10.245 0)
(1.19196 10.4288 0)
(-0.528641 4.45878 0)
(-0.806642 0.281268 0)
(-1.4711 -3.45631 0)
(-0.603624 -3.28863 0)
(0.128493 -2.1274 0)
(0.362587 -1.58549 0)
(0.233194 -1.39572 0)
(-0.0223505 -1.24091 0)
(-0.229533 -1.10221 0)
(-0.339307 -1.0598 0)
(-0.692553 -0.56245 0)
(-0.860376 -0.402313 0)
(-1.27286 0.188618 0)
(-1.26724 0.249619 0)
(-0.876421 -0.0555123 0)
(-0.610609 -0.328776 0)
(-0.620484 -0.409393 0)
(-0.623985 -0.455158 0)
(-0.606087 -0.494992 0)
(-0.577811 -0.521098 0)
(0.24874 1.61595 0)
(3.63473 7.99479 0)
(6.85625 10.04 0)
(7.16959 6.38309 0)
(5.2855 1.01161 0)
(3.58292 -1.95756 0)
(1.71517 -3.15515 0)
(1.05132 -2.06139 0)
(0.678136 -1.42151 0)
(0.358895 -1.12831 0)
(0.0482899 -0.979279 0)
(-0.207229 -0.899636 0)
(-0.447966 -0.765946 0)
(-0.713414 -0.396512 0)
(-0.938434 -0.127238 0)
(-1.22053 0.308613 0)
(-0.972161 -0.0975028 0)
(-0.805214 -0.299563 0)
(-0.758045 -0.355751 0)
(-0.728638 -0.420306 0)
(-0.688073 -0.483011 0)
(-0.642888 -0.530538 0)
(-0.599293 -0.557448 0)
(0.140696 -0.0136771 0)
(3.06023 3.91673 0)
(6.3274 7.15016 0)
(8.07796 6.69309 0)
(7.13558 3.2079 0)
(5.29522 0.0642913 0)
(3.02007 -1.41552 0)
(1.68368 -1.24928 0)
(0.973787 -0.94135 0)
(0.485339 -0.743428 0)
(0.0894491 -0.662784 0)
(-0.221684 -0.654754 0)
(-0.508918 -0.438729 0)
(-0.754038 -0.175833 0)
(-1.10084 0.273097 0)
(-1.06178 0.1568 0)
(-0.922414 -0.230661 0)
(-0.921361 -0.32418 0)
(-0.878742 -0.395771 0)
(-0.815391 -0.473333 0)
(-0.745882 -0.53997 0)
(-0.680994 -0.583825 0)
(-0.622088 -0.607359 0)
(-0.0460314 -0.420459 0)
(1.21019 1.86617 0)
(2.9676 4.58345 0)
(4.72913 5.78396 0)
(4.97283 4.07222 0)
(3.80879 1.74199 0)
(2.59213 0.143846 0)
(1.69964 -0.363997 0)
(1.11135 -0.344195 0)
(0.554845 -0.267228 0)
(0.0248667 -0.263115 0)
(-0.235181 -0.423432 0)
(-0.653815 -0.0756732 0)
(-0.892602 0.0999465 0)
(-1.2824 0.453069 0)
(-1.18301 0.00413283 0)
(-1.14322 -0.243192 0)
(-1.07706 -0.371559 0)
(-0.992457 -0.46892 0)
(-0.89541 -0.556848 0)
(-0.800569 -0.619245 0)
(-0.715456 -0.65484 0)
(-0.640772 -0.671175 0)
(-0.079238 -0.730028 0)
(0.61288 0.986406 0)
(0.6101 3.58814 0)
(1.08941 4.77924 0)
(1.54569 4.29085 0)
(1.82661 2.32693 0)
(1.61072 0.789783 0)
(1.35764 0.080816 0)
(1.26037 0.30857 0)
(0.639344 0.342811 0)
(0.0137131 0.115355 0)
(-0.466745 -0.0204867 0)
(-0.775965 0.204608 0)
(-1.31211 0.571815 0)
(-1.59009 0.473451 0)
(-1.51467 -0.0552562 0)
(-1.39308 -0.339204 0)
(-1.25092 -0.478839 0)
(-1.10926 -0.585248 0)
(-0.971927 -0.671665 0)
(-0.847177 -0.722806 0)
(-0.74016 -0.744371 0)
(-0.650446 -0.748002 0)
(-0.136961 -1.08872 0)
(0.376686 0.680258 0)
(0.122027 4.1058 0)
(-0.238769 4.50701 0)
(0.234128 3.66742 0)
(0.456782 2.22971 0)
(0.47494 0.827749 0)
(0.832476 -0.50412 0)
(-0.307918 0.501364 0)
(-0.0451721 1.23361 0)
(-0.189321 0.532879 0)
(-0.69671 0.45138 0)
(-1.27164 0.740067 0)
(-1.99435 1.13859 0)
(-1.88244 0.380771 0)
(-1.81659 -0.172739 0)
(-1.65928 -0.514747 0)
(-1.43969 -0.660201 0)
(-1.22474 -0.755624 0)
(-1.03615 -0.825316 0)
(-0.876338 -0.853732 0)
(-0.747479 -0.851851 0)
(-0.645387 -0.835708 0)
(-0.115583 -0.88058 0)
(-0.288968 1.15754 0)
(-0.653525 4.56754 0)
(-0.56475 4.38258 0)
(-0.517094 3.53721 0)
(-0.943842 2.43858 0)
(-0.822393 0.534019 0)
(-1.24312 0.524403 0)
(-1.2617 0.565534 0)
(-1.05923 0.816926 0)
(-0.978758 0.880007 0)
(-1.51869 0.952851 0)
(-2.46276 1.61418 0)
(-2.10063 0.916673 0)
(-1.85615 0.321308 0)
(-1.92637 -0.227402 0)
(-1.89562 -0.708758 0)
(-1.6593 -0.929011 0)
(-1.3336 -1.00204 0)
(-1.07082 -1.02559 0)
(-0.873762 -1.01268 0)
(-0.727366 -0.973785 0)
(-0.619181 -0.929786 0)
(-0.141086 -0.322352 0)
(-1.06598 1.51054 0)
(-1.22022 4.49033 0)
(-0.840913 4.25922 0)
(-1.1125 4.03095 0)
(-1.61753 2.48714 0)
(-1.32579 0.706578 0)
(-1.31719 0.530208 0)
(-1.23171 0.49262 0)
(-1.35333 0.776724 0)
(-1.95701 1.48437 0)
(-2.78802 1.90599 0)
(-2.4306 1.15075 0)
(-1.66874 0.295973 0)
(-1.41533 0.313429 0)
(-1.59138 -0.0302721 0)
(-1.79211 -0.736955 0)
(-1.7873 -1.22864 0)
(-1.43576 -1.38528 0)
(-1.04673 -1.28452 0)
(-0.817927 -1.19369 0)
(-0.667913 -1.10102 0)
(-0.565934 -1.02181 0)
(-0.165786 0.253796 0)
(-1.15074 2.14529 0)
(-1.1017 4.0909 0)
(-0.721217 4.17996 0)
(-0.827118 4.67004 0)
(-1.22271 1.73527 0)
(-1.25427 0.76779 0)
(-1.37397 0.430787 0)
(-1.40925 0.59756 0)
(-1.81526 1.38718 0)
(-2.35699 2.16809 0)
(-2.29342 1.71308 0)
(-1.76533 0.502255 0)
(-1.53127 -0.0406283 0)
(-1.26089 0.106874 0)
(-0.837248 0.0439867 0)
(-0.885303 -0.45382 0)
(-1.23295 -1.20631 0)
(-1.2614 -1.79219 0)
(-0.8978 -1.61743 0)
(-0.677888 -1.37255 0)
(-0.558917 -1.21414 0)
(-0.483128 -1.09841 0)
(-0.140156 0.661674 0)
(-0.739806 2.60886 0)
(-0.587663 3.7107 0)
(-0.249595 3.9812 0)
(0.0810307 4.65983 0)
(-0.190662 3.00234 0)
(-1.01224 0.730361 0)
(-0.89408 0.788131 0)
(-1.47118 0.828315 0)
(-1.72767 1.79778 0)
(-1.73325 2.12639 0)
(-1.24413 1.23957 0)
(-0.792844 0.200079 0)
(-0.413653 -0.174318 0)
(-0.153038 -0.222163 0)
(-0.0466634 -0.27252 0)
(0.0100438 -0.379924 0)
(-0.101779 -0.775607 0)
(-0.352989 -1.71558 0)
(-0.516032 -1.89513 0)
(-0.441183 -1.48808 0)
(-0.403979 -1.28103 0)
(-0.376747 -1.14306 0)
(-0.109986 0.88098 0)
(-0.229364 2.77156 0)
(-0.0744044 3.43541 0)
(0.191569 3.66871 0)
(0.583585 4.07202 0)
(1.03758 3.81136 0)
(-0.0899015 1.52918 0)
(-0.920468 0.658523 0)
(-0.792575 1.25214 0)
(-1.07753 1.90967 0)
(-0.932503 1.74243 0)
(-0.432659 0.694136 0)
(-0.04999 -0.320703 0)
(0.149608 -0.544011 0)
(0.447047 -0.446048 0)
(0.721768 -0.233616 0)
(0.780879 -0.22594 0)
(0.571951 -0.637123 0)
(0.382654 -1.29703 0)
(-0.0136796 -1.82701 0)
(-0.170891 -1.46418 0)
(-0.23706 -1.27366 0)
(-0.264951 -1.14496 0)
(-0.0271004 1.03096 0)
(0.335081 2.71944 0)
(0.343085 3.29375 0)
(0.497571 3.39057 0)
(0.788279 3.61299 0)
(1.21137 3.67491 0)
(1.02747 2.79681 0)
(-0.175816 1.30062 0)
(-0.601328 1.24862 0)
(-0.547145 1.96808 0)
(-0.487897 1.4729 0)
(-0.3733 0.442099 0)
(-0.565286 -0.435369 0)
(-0.53142 -0.782424 0)
(-0.283514 -0.915129 0)
(0.251353 -0.538484 0)
(0.551514 -0.331909 0)
(0.670804 -0.441778 0)
(0.628768 -1.05546 0)
(0.290871 -1.4743 0)
(0.0124725 -1.31259 0)
(-0.107458 -1.20248 0)
(-0.170132 -1.10991 0)
(0.0859602 1.02951 0)
(0.349618 2.19123 0)
(0.550192 3.27825 0)
(0.700508 3.16805 0)
(0.922952 3.3853 0)
(1.04079 3.39813 0)
(1.14693 3.17998 0)
(0.685488 2.36006 0)
(-0.0900696 1.40735 0)
(-0.0930998 1.97116 0)
(-0.288242 1.49174 0)
(-0.494402 0.590808 0)
(-0.361109 -0.362331 0)
(-0.27961 -0.804097 0)
(-0.271192 -1.02419 0)
(-0.305992 -1.04393 0)
(0.0998317 -0.631413 0)
(0.491954 -0.566439 0)
(0.460246 -0.94822 0)
(0.239953 -1.14326 0)
(0.0707913 -1.15296 0)
(-0.0350805 -1.11255 0)
(-0.103159 -1.05705 0)
(0.0241429 0.928392 0)
(0.111743 1.44323 0)
(0.572192 3.29407 0)
(0.630968 2.84294 0)
(0.974542 3.27109 0)
(0.941976 3.37958 0)
(0.90662 3.20594 0)
(0.823466 2.85534 0)
(0.438783 1.86947 0)
(0.199848 2.07361 0)
(-0.247669 1.77543 0)
(-0.396835 0.632793 0)
(-0.374268 -0.347424 0)
(-0.229392 -0.919434 0)
(-0.167268 -1.03165 0)
(-0.129969 -0.989112 0)
(-0.114519 -0.939247 0)
(0.0364216 -0.80959 0)
(0.174303 -0.916442 0)
(0.147101 -1.02245 0)
(0.0724485 -1.05161 0)
(-0.00101859 -1.03616 0)
(-0.0595176 -1.00308 0)
(-0.0465641 0.898612 0)
(-0.0362987 1.22331 0)
(0.348381 3.03642 0)
(0.562138 2.64421 0)
(0.794062 3.06219 0)
(0.798116 3.51486 0)
(0.654356 3.26432 0)
(0.598099 3.03143 0)
(0.511795 2.06969 0)
(0.209125 2.45965 0)
(-0.253855 2.05379 0)
(-0.461197 0.684139 0)
(-0.532656 -0.504448 0)
(-0.341123 -1.05172 0)
(-0.200888 -1.09575 0)
(-0.115369 -1.05319 0)
(-0.0415753 -0.996772 0)
(0.0475585 -0.942074 0)
(0.111106 -0.953664 0)
(0.108875 -0.983153 0)
(0.0686483 -0.990843 0)
(0.018437 -0.978563 0)
(-0.0294366 -0.954666 0)
(-0.0658166 1.02237 0)
(-0.213675 1.36172 0)
(0.180071 2.45016 0)
(0.534413 2.55028 0)
(0.543674 2.93732 0)
(0.553538 3.62297 0)
(0.437045 3.38068 0)
(0.24546 3.16857 0)
(0.427538 2.18656 0)
(-0.0312484 3.09873 0)
(-0.225518 2.1642 0)
(-0.741239 1.09604 0)
(-0.830542 -0.648277 0)
(-0.500814 -1.32463 0)
(-0.213061 -1.25276 0)
(-0.067341 -1.15366 0)
(0.0204354 -1.06892 0)
(0.0793563 -1.00522 0)
(0.108949 -0.974943 0)
(0.103961 -0.962654 0)
(0.0751148 -0.950683 0)
(0.0359815 -0.933741 0)
(-0.00519114 -0.911793 0)
(-0.0686872 1.23943 0)
(-0.198866 1.31243 0)
(0.144383 1.99868 0)
(0.333773 2.57356 0)
(0.167824 2.90939 0)
(0.360022 3.57373 0)
(0.321133 3.50272 0)
(0.201026 3.1712 0)
(0.264227 2.38627 0)
(-0.340849 3.54938 0)
(-0.160503 2.37985 0)
(-0.745185 1.47565 0)
(-0.797879 -0.862628 0)
(-0.456435 -1.79306 0)
(-0.0948923 -1.49303 0)
(0.0504052 -1.26528 0)
(0.113086 -1.12739 0)
(0.138104 -1.03437 0)
(0.139889 -0.97702 0)
(0.12273 -0.941773 0)
(0.0925527 -0.91661 0)
(0.055942 -0.894614 0)
(0.0173359 -0.872107 0)
(-0.0807977 1.48148 0)
(-0.130149 1.16293 0)
(0.00783161 1.77373 0)
(0.202246 2.65641 0)
(0.0187194 2.87925 0)
(0.229808 3.37261 0)
(0.218583 3.6978 0)
(0.268197 2.83567 0)
(0.104402 2.79648 0)
(-0.203093 3.42345 0)
(0.0526224 2.58582 0)
(0.283558 1.67635 0)
(0.338135 -0.710952 0)
(0.159239 -2.10914 0)
(0.229161 -1.66359 0)
(0.254593 -1.31679 0)
(0.24276 -1.13905 0)
(0.219166 -1.02706 0)
(0.18948 -0.956587 0)
(0.154879 -0.911364 0)
(0.117081 -0.880405 0)
(0.0780128 -0.85611 0)
(0.0392975 -0.833668 0)
(-0.0580475 1.54336 0)
(-0.125335 1.18424 0)
(-0.104202 1.60114 0)
(0.195371 2.50248 0)
(0.164705 2.99613 0)
(0.136334 3.1921 0)
(0.0758743 3.93408 0)
(0.233251 2.61716 0)
(0.19085 3.13127 0)
(0.164483 3.13242 0)
(0.525629 2.14666 0)
(1.15662 1.24011 0)
(1.26176 -0.475536 0)
(0.9979 -1.92404 0)
(0.643787 -1.55946 0)
(0.487016 -1.24756 0)
(0.382309 -1.08246 0)
(0.305597 -0.977992 0)
(0.243901 -0.911106 0)
(0.190815 -0.867668 0)
(0.143202 -0.838109 0)
(0.0996083 -0.815521 0)
(0.0597247 -0.795484 0)
(-0.0299883 1.65708 0)
(-0.263941 1.22294 0)
(-0.0899864 1.50222 0)
(0.0458175 2.11128 0)
(0.31019 3.21413 0)
(-0.00140556 3.11089 0)
(-0.093208 3.98783 0)
(0.115186 2.63264 0)
(0.118642 3.19609 0)
(0.717494 2.83144 0)
(1.10396 1.70357 0)
(1.41569 0.975971 0)
(1.79166 -0.535373 0)
(1.45652 -1.43271 0)
(0.923413 -1.22798 0)
(0.660875 -1.07008 0)
(0.492932 -0.964221 0)
(0.37671 -0.891633 0)
(0.290097 -0.843038 0)
(0.221751 -0.810926 0)
(0.165279 -0.788908 0)
(0.117292 -0.772134 0)
(0.0765059 -0.757606 0)
(0.0753263 1.30401 0)
(-0.258551 1.23594 0)
(-0.160001 1.38908 0)
(-0.145557 1.95736 0)
(0.0939954 3.18249 0)
(-0.0269363 3.18042 0)
(-0.0527726 4.0069 0)
(-0.202574 2.71026 0)
(-0.131184 2.79541 0)
(0.602529 2.10826 0)
(1.18705 1.23336 0)
(1.72841 0.416619 0)
(1.9089 -0.511613 0)
(1.41119 -0.845151 0)
(1.00353 -0.872601 0)
(0.737315 -0.848131 0)
(0.551955 -0.812638 0)
(0.418532 -0.781916 0)
(0.318627 -0.75948 0)
(0.24093 -0.744406 0)
(0.178545 -0.734197 0)
(0.127917 -0.726801 0)
(0.0872996 -0.720573 0)
(0.131582 0.83629 0)
(-0.00282437 1.70355 0)
(-0.386029 1.41791 0)
(-0.452552 1.95785 0)
(-0.245441 2.93148 0)
(0.0349479 3.24844 0)
(0.229819 4.05273 0)
(-0.176637 2.96192 0)
(-0.00220033 2.29205 0)
(0.860649 1.36683 0)
(1.48939 0.670792 0)
(1.71438 0.185013 0)
(1.54109 -0.200462 0)
(1.23655 -0.456955 0)
(0.956107 -0.582794 0)
(0.731769 -0.635685 0)
(0.55941 -0.656442 0)
(0.427503 -0.664649 0)
(0.325183 -0.669004 0)
(0.244302 -0.672719 0)
(0.180134 -0.676864 0)
(0.12985 -0.681434 0)
(0.089814 -0.684765 0)
(-0.134599 0.370427 0)
(0.0955139 2.49391 0)
(-0.675689 1.70439 0)
(-0.96055 1.9648 0)
(-0.824727 2.53702 0)
(-0.312035 3.06835 0)
(0.136159 3.73306 0)
(0.367225 3.04315 0)
(1.0747 1.60452 0)
(1.4754 0.809954 0)
(1.48117 0.540576 0)
(1.37836 0.297422 0)
(1.23874 0.0153584 0)
(1.04949 -0.212939 0)
(0.850853 -0.362158 0)
(0.673998 -0.455138 0)
(0.526654 -0.513403 0)
(0.406735 -0.55164 0)
(0.310042 -0.579009 0)
(0.232982 -0.601349 0)
(0.171418 -0.620897 0)
(0.119909 -0.636043 0)
(0.0809183 -0.650588 0)
(-0.197129 0.28731 0)
(0.379453 2.99735 0)
(-0.595674 2.55499 0)
(-1.68238 2.31107 0)
(-2.16922 2.20174 0)
(-1.43076 2.45149 0)
(-0.314297 2.83789 0)
(0.88507 2.17876 0)
(1.36551 1.26097 0)
(1.26923 0.89182 0)
(1.17297 0.646171 0)
(1.10387 0.39401 0)
(1.00367 0.155342 0)
(0.868435 -0.0439959 0)
(0.723003 -0.196803 0)
(0.58635 -0.308459 0)
(0.468912 -0.390003 0)
(0.371016 -0.451016 0)
(0.286862 -0.497692 0)