# vtk DataFile Version 2.0
gauge_2
ASCII
DATASET POLYDATA
POINTS 85 double
0.2 0.0329993 0.005
0.2 0.0359992 0.005
0.2 0.0389992 0.005
0.2 0.0419991 0.005
0.2 0.044999 0.005
0.2 0.047999 0.005
0.2 0.0543799 0.005
0.2 0.0607609 0.005
0.2 0.0671419 0.005
0.2 0.0735228 0.005
0.2 0.0799038 0.005
0.2 0.0862847 0.005
0.2 0.0926657 0.005
0.2 0.0990467 0.005
0.2 0.105428 0.005
0.2 0.111809 0.005
0.2 0.11819 0.005
0.2 0.124571 0.005
0.2 0.130952 0.005
0.2 0.137332 0.005
0.2 0.143713 0.005
0.2 0.150094 0.005
0.2 0.156475 0.005
0.2 0.162856 0.005
0.2 0.169237 0.005
0.2 0.175618 0.005
0.2 0.181999 0.005
0.2 0.18838 0.005
0.2 0.194761 0.005
0.2 0.201142 0.005
0.2 0.207523 0.005
0.2 0.213904 0.005
0.2 0.220285 0.005
0.2 0.226666 0.005
0.2 0.233047 0.005
0.2 0.239428 0.005
0.2 0.245809 0.005
0.2 0.25219 0.005
0.2 0.258571 0.005
0.2 0.264952 0.005
0.2 0.271333 0.005
0.2 0.277714 0.005
0.2 0.284095 0.005
0.2 0.290476 0.005
0.2 0.296857 0.005
0.2 0.303238 0.005
0.2 0.309619 0.005
0.2 0.315999 0.005
0.2 0.32238 0.005
0.2 0.328761 0.005
0.2 0.335142 0.005
0.2 0.341523 0.005
0.2 0.347904 0.005
0.2 0.354285 0.005
0.2 0.360666 0.005
0.2 0.367047 0.005
0.2 0.373428 0.005
0.2 0.379809 0.005
0.2 0.38619 0.005
0.2 0.392571 0.005
0.2 0.398952 0.005
0.2 0.405333 0.005
0.2 0.411714 0.005
0.2 0.418095 0.005
0.2 0.424476 0.005
0.2 0.430857 0.005
0.2 0.437238 0.005
0.2 0.443619 0.005
0.2 0.45 0.005
0.2 0.456381 0.005
0.2 0.462762 0.005
0.2 0.469143 0.005
0.2 0.475524 0.005
0.2 0.481905 0.005
0.2 0.488286 0.005
0.2 0.494666 0.005
0.2 0.501047 0.005
0.2 0.507428 0.005
0.2 0.513809 0.005
0.2 0.52019 0.005
0.2 0.526571 0.005
0.2 0.532952 0.005
0.2 0.539333 0.005
0.2 0.545714 0.005
0.2 0.552095 0.005
POINT_DATA 85
 FIELD attributes 1
alpha.water 1 85 float
1 1 1 0.999998 0.983711 0.800489 0.333543 0.507589 0.865318 0.706127 0.285179 0.0202896 0.00869313 0.000209652 0.000203039 0.000202984 0.000203439 0.00107928 0.0450702 0.121468 0.14182 0.0656305 0.00128105 0.000186891 0.000187315 0.000188753 0.00195709 0.0140354 0.0250046 0.025651 0.0250256 0.0239332 0.0224782 0.0163006 0.00861177 0.00433436 0.00276833 0.00358948 0.00248838 0.000392408 1.1202e-07 5.4954e-10 2.36531e-10 2.20985e-10 1.74092e-10 1.34134e-10 1.22256e-10 1.2343e-10 1.14438e-10 8.84162e-11 7.31905e-11 7.19215e-11 8.4446e-11 2.88992e-09 7.11632e-07 2.0523e-06 1.70618e-06 7.57072e-07 8.38843e-05 0.00225173 0.00558751 0.00676769 0.00445658 0.00110815 9.5547e-12 8.34967e-11 2.00401e-10 1.45543e-10 3.4503e-11 1.38894e-11 6.68113e-12 3.83186e-12 2.71509e-12 2.01013e-12 1.3708e-12 9.96165e-13 7.94245e-13 5.50873e-13 2.94244e-13 5.69956e-14 6.82178e-15 3.43116e-15 4.02327e-16 7.04924e-17 1.05833e-17
