/*--------------------------------*- C++ -*----------------------------------*\
| =========                 |                                                 |
| \\      /  F ield         | OpenFOAM: The Open Source CFD Toolbox           |
|  \\    /   O peration     | Version:  v1912                                 |
|   \\  /    A nd           | Website:  www.openfoam.com                      |
|    \\/     M anipulation  |                                                 |
\*---------------------------------------------------------------------------*/
FoamFile
{
    version     2.0;
    format      ascii;
    class       surfaceScalarField;
    location    "0.75";
    object      alphaPhi0.water;
}
// * * * * * * * * * * * * * * * * * * * * * * * * * * * * * * * * * * * * * //

dimensions      [0 3 -1 0 0 0 0];
oriented        oriented;


internalField   nonuniform List<scalar> 
17936
(
-8.62323e-07
2.50459e-06
-1.64226e-06
2.15066e-06
-3.11307e-06
9.62409e-07
3.79936e-06
-4.57639e-06
7.77032e-07
5.57768e-06
-6.54718e-06
9.69503e-07
6.96498e-06
-6.60119e-06
-3.63792e-07
5.79716e-06
-5.13628e-06
-6.60885e-07
4.8766e-06
-4.98642e-06
1.09824e-07
5.4099e-06
-6.06654e-06
6.56638e-07
6.82157e-06
-7.56628e-06
7.4471e-07
8.24141e-06
-8.83306e-06
5.91654e-07
9.35482e-06
-9.82688e-06
4.72062e-07
1.02662e-05
-1.06844e-05
4.18206e-07
1.11007e-05
-1.15597e-05
4.59009e-07
1.21072e-05
-1.26516e-05
5.44317e-07
1.28468e-05
-1.24162e-05
-2.0157e-07
1.23847e-05
-1.46231e-05
1.95911e-06
1.76439e-05
-1.76661e-05
2.24674e-08
1.46787e-05
-1.02809e-05
-4.38764e-06
6.41964e-06
-4.79811e-06
-1.58247e-06
7.06953e-06
-1.34992e-05
6.35319e-06
1.97084e-05
-2.03116e-05
6.02646e-07
1.63151e-05
-1.07686e-05
-5.54513e-06
5.45692e-06
-1.41643e-06
-4.04049e-06
-4.22986e-06
5.8091e-06
-1.57924e-06
2.71107e-06
-3.19478e-06
-1.60504e-06
2.08874e-06
3.8426e-06
-4.92684e-06
-1.70353e-06
2.78777e-06
6.35588e-06
-7.72201e-06
-1.88189e-06
3.24802e-06
8.36682e-06
-7.88287e-06
8.18536e-07
-1.30248e-06
6.64976e-06
-5.58192e-06
1.47963e-06
-2.54747e-06
5.08578e-06
-5.0241e-06
-1.61561e-07
9.98872e-08
5.23734e-06
-5.62732e-06
-1.22654e-06
1.61652e-06
6.1328e-06
-6.7197e-06
-1.4621e-06
2.049e-06
7.34976e-06
-7.98146e-06
-1.23475e-06
1.86646e-06
8.57655e-06
-9.11334e-06
-9.99308e-07
1.5361e-06
9.5885e-06
-1.0012e-05
-8.81495e-07
1.30502e-06
1.04017e-05
-1.07879e-05
-1.08795e-06
1.47418e-06
1.12589e-05
-1.20427e-05
-1.56016e-06
2.34395e-06
1.34809e-05
-1.47931e-05
-1.57386e-06
3.76996e-06
1.68338e-05
-1.79423e-05
-3.54814e-06
4.60958e-06
1.85371e-05
-1.78251e-05
1.56115e-06
-2.27313e-06
1.72803e-05
-1.71373e-05
6.87192e-06
-7.01475e-06
1.78172e-05
-1.98138e-05
1.57396e-07
1.82569e-06
2.19011e-05
-2.0189e-05
-1.03468e-05
9.31021e-06
1.59394e-05
-1.28455e-05
2.61183e-06
-5.75237e-06
1.06199e-05
-7.09053e-06
1.02472e-05
-1.40194e-05
4.32124e-06
-2.14732e-06
7.29194e-06
-9.46598e-06
-7.20094e-06
8.4082e-06
-1.20726e-06
2.19333e-06
-2.78954e-06
-2.57564e-06
3.17186e-06
3.88367e-06
-5.74946e-06
-4.21888e-06
6.08466e-06
8.15144e-06
-1.03287e-05
-5.13137e-06
7.30866e-06
1.12473e-05
-1.04498e-05
1.9454e-06
-2.7429e-06
8.53589e-06
-6.72388e-06
4.00641e-06
-5.81841e-06
5.86073e-06
-5.75017e-06
7.39243e-09
-1.17954e-07
5.93509e-06
-6.31725e-06
-1.99193e-06
2.37409e-06
6.8006e-06
-7.33048e-06
-2.59305e-06
3.12293e-06
7.87337e-06
-8.40232e-06
-2.45154e-06
2.98049e-06
8.8942e-06
-9.33587e-06
-2.03727e-06
2.47895e-06
9.72498e-06
-1.00654e-05
-1.69074e-06
2.03118e-06
1.03602e-05
-1.05983e-05
-1.73513e-06
1.97317e-06
1.07486e-05
-1.07864e-05
-2.61655e-06
2.65433e-06
1.07393e-05
-1.06668e-05
-4.94035e-06
4.86783e-06
1.049e-05
-1.02058e-05
-5.21784e-06
5.03771e-06
1.0033e-05
-1.04258e-05
2.30852e-06
-1.93238e-06
1.16722e-05
-1.37292e-05
5.52967e-06
-3.47255e-06
1.57095e-05
-1.60855e-05
-3.14046e-06
3.602e-06
1.24504e-05
-9.59043e-06
-6.82434e-06
3.91198e-06
6.81433e-06
-5.03898e-06
8.5517e-06
-1.03794e-05
3.4492e-06
-2.56945e-06
1.64901e-05
-1.737e-05
1.89412e-06
-1.10126e-06
1.08064e-05
-1.15996e-05
-9.43087e-06
1.02427e-05
-8.11813e-07
1.89339e-06
-2.92481e-06
-3.975e-06
5.00641e-06
4.49455e-06
-6.5319e-06
-8.22558e-06
1.02629e-05
8.53747e-06
-9.77801e-06
-9.26985e-06
1.05104e-05
9.87266e-06
-9.06471e-06
3.5859e-06
-4.39385e-06
8.0115e-06
-7.04137e-06
7.5508e-06
-8.52092e-06
6.37966e-06
-6.42136e-06
1.90448e-07
-1.48753e-07
6.7316e-06
-7.12506e-06
-2.75499e-06
3.14845e-06
7.56988e-06
-8.0295e-06
-3.62458e-06
4.0842e-06
8.4757e-06
-8.89018e-06
-3.45222e-06
3.86671e-06
9.26312e-06
-9.592e-06
-2.86208e-06
3.19095e-06
9.8788e-06
-1.01267e-05
-2.32381e-06
2.5717e-06
1.03375e-05
-1.05086e-05
-2.18466e-06
2.35579e-06
1.06283e-05
-1.06532e-05
-2.67557e-06
2.70039e-06
1.04618e-05
-9.87453e-06
-4.24327e-06
3.65601e-06
8.88061e-06
-7.89749e-06
-4.12828e-06
3.14516e-06
7.52084e-06
-7.82761e-06
1.50691e-06
-1.20013e-06
8.37054e-06
-8.72598e-06
2.02307e-06
-1.66764e-06
8.74607e-06
-7.77148e-06
-3.38086e-06
2.4264e-06
5.07745e-06
-2.29085e-06
-1.08222e-06
-1.65289e-06
4.70512e-07
1.24999e-07
1.43704e-05
-1.49659e-05
3.9106e-07
-9.46105e-07
1.72308e-05
-1.6676e-05
1.03079e-06
-6.66838e-07
1.20881e-05
-1.2452e-05
-1.07785e-05
1.09302e-05
-1.51658e-07
1.4341e-06
-2.53548e-06
-6.16336e-06
7.26474e-06
3.63652e-06
-4.4707e-06
-1.18106e-05
1.26448e-05
4.78581e-06
-4.42183e-06
-1.08656e-05
1.05016e-05
3.63291e-06
-2.75571e-06
5.22378e-06
-6.10098e-06
3.15603e-06
-4.8117e-06
8.21946e-06
-6.56379e-06
6.06148e-06
-6.7673e-06
-1.48898e-07
8.54725e-07
7.40142e-06
-7.89115e-06
-3.57993e-06
4.06966e-06
8.31078e-06
-8.68775e-06
-4.50035e-06
4.87732e-06
9.02734e-06
-9.32821e-06
-4.22351e-06
4.52439e-06
9.5906e-06
-9.8173e-06
-3.46773e-06
3.69444e-06
1.00129e-05
-1.01809e-05
-2.77799e-06
2.94605e-06
1.03212e-05
-1.04272e-05
-2.49023e-06
2.59627e-06
1.04842e-05
-1.04663e-05
-2.7022e-06
2.68427e-06
1.03284e-05
-1.00158e-05
-3.24006e-06
2.92746e-06
9.53934e-06
-9.07095e-06
-2.43931e-06
1.97093e-06
8.85002e-06
-8.9142e-06
1.03724e-06
-9.73065e-07
8.96472e-06
-8.53642e-06
1.9703e-06
-2.3986e-06
7.20951e-06
-4.95813e-06
-5.542e-07
-1.69718e-06
2.38935e-06
-4.37264e-07
3.9338e-06
-5.88589e-06
-3.72629e-07
1.09959e-07
1.4848e-05
-1.45853e-05
4.06734e-07
-6.94298e-07
1.61318e-05
-1.58443e-05
6.9319e-07
-3.69971e-07
1.27882e-05
-1.31115e-05
-1.04832e-05
9.30373e-06
1.17946e-06
3.40501e-08
-6.38673e-07
-8.14079e-06
8.74542e-06
7.01508e-07
-1.43477e-07
-1.27249e-05
1.21669e-05
-9.5714e-07
2.17554e-06
-9.67158e-06
8.45318e-06
-3.29691e-06
3.54308e-06
6.77909e-06
-7.02526e-06
-1.57344e-06
-2.20314e-06
3.66856e-06
1.08056e-07
5.41909e-06
-7.03573e-06
-2.05329e-06
3.66993e-06
7.93156e-06
-8.5242e-06
-4.62114e-06
5.21378e-06
8.93221e-06
-9.24287e-06
-5.21949e-06
5.53014e-06
9.49272e-06
-9.69756e-06
-4.77383e-06
4.97867e-06
9.86705e-06
-1.00092e-05
-3.87553e-06
4.01772e-06
1.01309e-05
-1.02363e-05
-3.07999e-06
3.18539e-06
1.03252e-05
-1.03918e-05
-2.6802e-06
2.74676e-06
1.0424e-05
-1.04045e-05
-2.66129e-06
2.64181e-06
1.03104e-05
-1.01237e-05
-2.67995e-06
2.49332e-06
9.86392e-06
-9.60925e-06
-1.62898e-06
1.3743e-06
9.44424e-06
-9.3552e-06
1.00049e-06
-1.08952e-06
9.18977e-06
-8.7238e-06
2.8155e-06
-3.28147e-06
7.75007e-06
-6.20344e-06
3.58275e-06
-5.12938e-06
4.3296e-06
-2.59169e-06
7.78586e-06
-9.52377e-06
1.4813e-06
-8.91712e-07
1.47223e-05
-1.53119e-05
5.33012e-07
-2.65782e-07
1.58693e-05
-1.61366e-05
8.44367e-08
9.53009e-08
1.3389e-05
-1.35688e-05
-7.39586e-06
4.85075e-06
2.54511e-06
-2.62655e-06
2.6049e-06
-9.11915e-06
9.1408e-06
-3.04142e-06
4.19145e-06
-1.10695e-05
9.91945e-06
-5.49844e-06
7.19336e-06
-7.06098e-06
5.36606e-06
-7.98021e-06
5.12975e-06
6.33166e-06
-3.5485e-06
-5.92145e-07
-3.53121e-06
-4.52002e-06
8.60104e-06
6.24471e-06
-7.69545e-06
-5.39456e-06
6.8453e-06
8.46983e-06
-9.00054e-06
-5.80429e-06
6.33499e-06
9.36821e-06
-9.62641e-06
-5.81352e-06
6.07171e-06
9.81508e-06
-9.95697e-06
-5.14792e-06
5.28981e-06
1.00659e-05
-1.01525e-05
-4.12872e-06
4.21532e-06
1.02254e-05
-1.02906e-05
-3.26769e-06
3.33281e-06
1.03498e-05
-1.03984e-05
-2.80087e-06
2.84946e-06
1.04274e-05
-1.04274e-05
-2.62957e-06
2.62956e-06
1.03904e-05
-1.03133e-05
-2.36385e-06
2.28675e-06
1.02076e-05
-1.01035e-05
-1.19878e-06
1.09467e-06
1.00214e-05
-9.9218e-06
1.19914e-06
-1.29872e-06
9.69644e-06
-9.20361e-06
3.78132e-06
-4.27416e-06
8.32344e-06
-7.03142e-06
6.52696e-06
-7.81898e-06
5.45198e-06
-3.81961e-06
1.11707e-05
-1.28031e-05
2.38931e-06
-1.23712e-06
1.61973e-05
-1.73495e-05
3.05626e-07
3.61577e-07
1.66087e-05
-1.72759e-05
-6.89986e-07
5.29371e-07
1.35813e-05
-1.34207e-05
-2.06135e-06
-1.66931e-06
3.6021e-06
-5.03961e-06
6.23129e-06
-8.69634e-06
7.50466e-06
-7.75006e-06
9.09099e-06
-8.87959e-06
7.53866e-06
-9.93419e-06
8.06271e-06
-3.69487e-06
5.56635e-06
-1.41883e-06
-4.22184e-06
-2.20478e-06
7.53148e-06
6.30153e-06
-7.21689e-06
-1.07337e-05
1.1649e-05
7.97478e-06
-8.63465e-06
-7.85962e-06
8.51949e-06
9.11045e-06
-9.43496e-06
-6.76248e-06
7.08699e-06
9.67733e-06
-9.86154e-06
-6.30228e-06
6.48649e-06
1.00035e-05
-1.01096e-05
-5.41306e-06
5.51915e-06
1.01836e-05
-1.02325e-05
-4.28198e-06
4.3308e-06
1.02657e-05
-1.02953e-05
-3.38045e-06
3.41002e-06
1.03297e-05
-1.03696e-05
-2.89592e-06
2.9358e-06
1.041e-05
-1.04476e-05
-2.64994e-06
2.68752e-06
1.04838e-05
-1.05202e-05
-2.26407e-06
2.30039e-06
1.05573e-05
-1.05996e-05
-1.05996e-06
1.10218e-06
1.06378e-05
-1.0622e-05
1.36655e-06
-1.38231e-06
1.04594e-05
-1.00411e-05
4.73583e-06
-5.15411e-06
9.27268e-06
-8.11295e-06
9.03048e-06
-1.01902e-05
6.60781e-06
-4.88667e-06
1.44664e-05
-1.61875e-05
3.11817e-06
-1.4574e-06
1.87664e-05
-2.04272e-05
1.32411e-08
1.12773e-06
1.8135e-05
-1.9276e-05
-1.75409e-06
1.4953e-06
1.31609e-05
-1.29021e-05
1.09581e-05
-1.42328e-05
3.26678e-06
-9.00317e-06
-2.42043e-06
1.09765e-05
2.02098e-05
-3.30168e-05
1.2048e-05
3.66889e-05
-3.70832e-05
-3.51581e-07
3.61125e-05
-3.44329e-05
-1.73263e-06
3.22352e-05
-2.90438e-05
-3.20082e-06
1.92779e-05
-6.60939e-06
-1.26686e-05
2.70104e-06
-5.86967e-06
3.16851e-06
1.07467e-05
-1.4082e-05
3.33023e-06
1.11184e-05
2.55237e-07
-1.15674e-05
-7.48067e-06
8.34741e-06
-9.13893e-07
-9.16806e-06
-7.3618e-07
9.6979e-06
2.77998e-05
-5.93085e-05
3.15354e-05
7.34084e-05
-6.56938e-05
-6.37495e-06
5.08639e-05
-3.23135e-05
-1.84035e-05
1.69991e-05
-1.62939e-05
-5.66433e-07
8.48523e-06
-3.42252e-06
-5.09519e-06
6.70289e-06
-1.25637e-05
5.85493e-06
1.4042e-05
-6.71196e-06
-6.92696e-06
5.73112e-06
1.06905e-05
-1.65598e-05
2.1324e-05
-1.47648e-05
-2.61753e-05
1.88857e-05
1.37815e-06
-2.94282e-09
-1.4665e-06
9.10726e-08
4.46193e-09
-2.04752e-08
1.62224e-08
-3.7979e-10
1.46147e-07
-7.53904e-07
6.20972e-07
-1.15338e-08
3.06159e-06
-5.76841e-06
5.54154e-06
-3.02431e-06
-1.41987e-06
6.0727e-06
2.22919e-05
-2.68496e-05
-7.35226e-06
6.24611e-06
-5.29196e-06
6.39816e-06
-3.15213e-06
1.16747e-06
-6.01289e-06
8.02202e-06
-4.36661e-06
7.91638e-06
2.12995e-05
-2.48492e-05
-7.3133e-07
-1.98487e-05
-5.39674e-06
2.562e-05
5.11312e-05
-7.66589e-05
-4.01643e-05
6.53091e-05
6.08299e-05
-1.00234e-05
-3.00312e-05
3.88419e-06
2.79204e-06
-7.15953e-06
7.4528e-06
-1.50146e-06
1.63868e-05
-9.12564e-06
3.47695e-05
-4.45949e-05
3.10455e-06
2.04497e-06
-3.98574e-06
-1.63232e-06
2.94605e-06
-2.01876e-05
3.30012e-06
1.39921e-05
2.83454e-05
-2.8403e-05
-1.0112e-05
1.06923e-05
2.5963e-05
-1.78289e-05
1.86189e-05
-2.39722e-05
-2.42539e-05
3.14538e-05
-4.5409e-06
1.9678e-06
-9.71696e-08
-2.8619e-06
9.85273e-07
7.91094e-10
1.82246e-10
-2.83247e-09
4.84233e-11
-6.65768e-10
9.85154e-10
5.04067e-10
-9.9405e-10
-1.50899e-09
1.75452e-08
1.21538e-09
-1.73726e-08
-8.97778e-07
1.84177e-05
2.13081e-06
-1.0903e-05
-2.6158e-05
2.17975e-05
2.73559e-05
-2.29887e-05
-1.48676e-05
9.19912e-06
-9.27207e-06
1.49405e-05
-6.18026e-06
3.82435e-06
-9.85447e-06
1.22104e-05
-1.41314e-06
-1.10844e-05
1.95972e-05
-7.02551e-06
3.60776e-05
-6.41878e-05
-5.22745e-05
7.95531e-05
7.56932e-05
-1.60942e-05
-6.32062e-05
2.39139e-05
3.29256e-07
-1.91232e-07
-2.03755e-07
-1.99571e-08
2.06491e-07
-3.00333e-07
3.76587e-07
-3.30441e-07
4.99293e-06
-5.57001e-07
4.72841e-05
-4.19337e-05
2.01187e-06
-3.49115e-07
3.62215e-06
-5.43692e-06
-1.01638e-05
2.18607e-05
-8.12043e-06
-2.04034e-06
-2.10051e-05
9.82612e-06
-1.75699e-05
1.56879e-05
-3.10575e-07
-5.44291e-06
1.7075e-05
-1.20663e-05
-3.18327e-05
2.4262e-05
7.57957e-06
-1.52927e-06
3.02205e-06
-1.28835e-06
8.14046e-06
-3.44185e-06
1.14733e-06
-8.59417e-09
-1.34888e-06
-2.71781e-08
2.64406e-08
-1.31543e-10
-4.35466e-09
-9.85389e-08
5.12016e-06
2.61905e-07
-1.81498e-06
-3.58027e-05
4.12027e-05
3.16349e-05
-3.64614e-05
-3.72145e-05
3.13365e-05
1.72713e-05
-1.13929e-05
-2.14518e-05
1.03226e-05
-2.36095e-05
3.47387e-05
-2.27508e-06
-3.10239e-06
-1.55196e-05
2.08971e-05
1.28998e-05
-3.57219e-05
-1.19679e-05
3.4791e-05
6.10647e-05
-7.14102e-05
-0.000102032
0.000113568
9.69774e-06
-2.27451e-07
-1.05697e-05
1.06628e-06
1.05013e-07
1.03873e-07
1.9513e-07
-4.90407e-07
-2.81578e-07
6.52828e-07
4.54797e-07
-9.91721e-07
-3.42851e-06
1.12406e-05
3.86556e-05
-4.45079e-05
-9.25011e-06
4.57792e-06
6.55252e-06
-8.07103e-06
-8.68144e-06
1.54944e-05
1.33389e-05
-1.00843e-05
-2.69292e-05
2.90513e-05
-2.57694e-05
2.65373e-05
-1.49525e-05
5.13979e-06
4.18771e-06
4.84551e-06
-1.66723e-05
1.19976e-05
4.6811e-06
-1.22955e-05
1.42518e-05
-7.19945e-06
2.3331e-06
-7.85149e-06
7.82998e-07
3.1168e-06
-3.21757e-07
-6.02243e-07
2.23243e-06
4.72992e-08
-1.83153e-06
-2.72474e-05
4.06115e-05
2.03816e-05
-3.14481e-05
-4.31267e-05
4.25816e-05
3.67729e-05
-3.61443e-05
-3.83981e-05
3.11085e-05
5.72901e-06
6.04161e-07
-2.40768e-05
1.01713e-05
-4.77228e-05
6.16282e-05
1.72064e-06
-1.18559e-05
-2.8744e-05
3.88794e-05
2.90764e-05
-5.46221e-05
-5.95847e-05
8.5141e-05
6.95661e-05
-1.16519e-05
-0.00010265
5.10383e-05
3.3243e-07
-2.11567e-07
7.45898e-09
-4.63908e-07
-5.34255e-07
3.03944e-06
1.33464e-06
-6.74381e-06
-8.7732e-06
1.76998e-05
2.535e-06
-4.39084e-05
-3.39947e-05
2.94631e-05
4.87592e-05
-4.42622e-05
-2.70354e-05
1.73332e-05
6.60812e-06
-1.14627e-05
-2.9203e-06
2.14128e-06
3.14156e-06
-2.67302e-06
-1.82376e-06
2.30083e-05
-1.6153e-05
5.01316e-06
-2.45854e-05
1.04072e-05
-1.73596e-05
2.97819e-05
-1.49321e-06
1.65027e-08
5.01696e-07
-1.30698e-06
1.52877e-07
6.36104e-07
-7.36599e-08
-9.54878e-08
9.64236e-07
1.42993e-07
-1.18466e-06
-1.41593e-05
3.50626e-05
1.27408e-05
-2.80733e-05
-3.99968e-05
4.00634e-05
3.52196e-05
-3.51281e-05
-3.86518e-05
9.85918e-06
3.43818e-05
-1.09197e-05
-1.77548e-06
2.03994e-06
-7.31952e-07
2.71243e-07
-9.9957e-06
4.40869e-06
-7.3653e-05
7.72894e-05
6.15159e-06
-1.86247e-05
-5.08005e-05
6.32773e-05
3.8466e-05
-5.82247e-05
-0.000108917
0.000128749
1.42909e-05
-4.92041e-07
-1.97887e-05
5.32163e-06
8.03195e-07
1.61859e-06
1.43789e-06
-4.36049e-06
-1.66216e-05
2.22845e-05
7.34956e-05
-9.47533e-05
-2.8008e-05
3.55299e-05
6.78527e-05
-7.52421e-05
-4.10177e-05
3.95226e-05
3.95415e-05
-3.79474e-05
-3.68702e-05
9.64106e-06
1.33012e-05
-1.06924e-05
-3.48294e-06
3.03455e-06
2.64754e-06
-2.40896e-06
-2.48588e-06
1.52497e-05
-5.17543e-06
7.25441e-06
-1.50896e-05
7.52052e-06
-3.17933e-05
4.10458e-05
-3.84925e-07
2.95028e-07
-4.19401e-09
-2.56977e-07
9.26137e-07
1.50776e-07
-1.11504e-06
-8.87528e-06
2.78221e-05
8.14728e-06
-2.58758e-05
-3.51828e-05
3.59566e-05
3.42303e-05
-3.48315e-05
-3.65271e-05
1.49857e-05
3.52736e-05
-1.93928e-05
-1.36624e-06
2.79071e-07
1.32648e-06
-2.62196e-07
-1.14888e-07
-7.42037e-08
-1.92583e-07
2.24125e-07
4.32798e-06
-2.95862e-07
-7.19495e-05
6.40323e-05
9.95508e-06
-1.9964e-05
-7.51278e-05
8.51583e-05
3.38173e-05
-3.55284e-05
-0.000142287
0.000144266
6.95405e-07
-1.04945e-06
-1.24028e-06
5.48591e-07
2.1247e-06
2.01784e-06
5.11987e-05
-8.37219e-05
1.23503e-05
-1.7329e-05
9.22461e-05
-8.54999e-05
7.27595e-06
9.41586e-06
8.71386e-05
-0.000103371
-2.09433e-05
2.21051e-05
3.91732e-05
-4.01617e-05
-1.11647e-05
1.96932e-06
4.60867e-06
-1.40952e-06
-1.6929e-06
5.06065e-07
1.6245e-06
-7.88273e-07
4.33324e-07
-3.51395e-07
-7.54293e-06
5.83328e-06
1.65519e-06
2.12578e-06
-3.92857e-05
6.42918e-05
-2.79825e-05
5.19673e-06
1.85703e-05
-1.63254e-05
2.48741e-05
2.04701e-05
-3.3685e-05
-3.03327e-05
3.17858e-05
3.30291e-05
-3.4479e-05
-2.99534e-05
1.92105e-05
3.3931e-05
-2.22186e-05
-3.13503e-06
8.0042e-07
4.37638e-06
-1.97069e-06
-2.34186e-07
3.22519e-08
-2.69905e-08
2.03553e-07
1.94039e-08
-1.07485e-08
-2.64044e-07
2.30017e-07
8.58121e-07
-1.18064e-05
-4.27346e-05
1.49587e-05
1.21254e-05
-1.73648e-05
-9.26357e-05
9.78821e-05
2.27877e-05
-1.10779e-05
-0.000135527
0.000139356
8.56733e-07
-1.98633e-06
-2.90294e-07
1.34862e-08
-2.39948e-06
-9.95032e-06
6.77795e-05
-4.94505e-05
5.78482e-06
-8.95143e-06
3.09931e-05
-6.49908e-06
1.22352e-05
-7.3587e-07
0.000115327
-0.000104537
-7.13224e-06
8.16174e-06
3.44572e-05
-1.66018e-05
-2.68586e-06
5.87542e-07
6.23301e-07
3.13304e-08
5.30327e-06
-3.72764e-06
-1.3118e-07
8.57972e-06
1.12734e-05
-2.4156e-05
-1.60306e-05
4.16066e-05
1.75172e-05
-6.24464e-06
-5.6251e-05
4.49977e-05
-2.44778e-06
-4.03602e-08
-1.40254e-06
6.84885e-06
-6.44933e-06
-6.42711e-06
3.60103e-08
6.91386e-06
-9.32414e-06
-6.24009e-06
-2.18434e-07
1.31685e-05
-1.59739e-05
-8.98501e-06
2.10908e-06
1.90783e-05
-2.18007e-05
-9.44491e-06
4.25199e-06
1.9821e-05
-1.69438e-05
-1.18111e-05
8.9339e-06
1.54445e-05
-1.58372e-05
-9.06152e-06
9.45416e-06
1.6976e-05
-1.81798e-05
-7.54774e-06
8.75154e-06
1.92944e-05
-2.02803e-05
-6.67191e-06
7.65785e-06
2.10798e-05
-2.16699e-05
-5.61035e-06
6.20047e-06
2.20776e-05
-2.23379e-05
-4.3569e-06
4.61724e-06
2.24889e-05
-2.25757e-05
-3.39563e-06
3.48246e-06
2.26362e-05
-2.266e-05
-2.93873e-06
2.96256e-06
2.26299e-05
-2.25874e-05
-2.7207e-06
2.67815e-06
2.26254e-05
-2.28171e-05
-2.38703e-06
2.57873e-06
2.31721e-05
-2.36468e-05
-1.22663e-06
1.70138e-06
2.41819e-05
-2.46348e-05
1.32739e-06
-8.74491e-07
2.4767e-05
-2.43533e-05
5.51364e-06
-5.92736e-06
2.31967e-05
-2.11189e-05
1.12971e-05
-1.33749e-05
1.79678e-05
-1.36947e-05
1.79694e-05
-2.22425e-05
8.31734e-06
-1.96999e-06
2.24122e-05
-2.87573e-05
-4.72441e-06
1.08655e-05
2.10327e-05
-2.71651e-05
-1.52587e-05
1.77495e-05
1.28231e-05
-1.53121e-05
2.21176e-09
-2.01985e-10
-1.48802e-09
1.99596e-08
-7.47303e-09
-1.33801e-08
6.55867e-10
7.34184e-09
-1.34873e-08
5.95819e-09
-9.05976e-11
4.73226e-08
-1.04038e-07
5.6174e-08
3.1514e-11
1.28098e-07
-1.18483e-07
-9.32834e-09
-3.43735e-10
4.00397e-07
-2.10607e-06
-4.79158e-08
-2.52438e-08
5.75698e-06
-1.08615e-05
-4.86107e-06
-6.58857e-08
1.80335e-05
-2.23574e-05
-8.33082e-06
1.21922e-06
2.3069e-05
-2.20296e-05
-7.92832e-06
4.51352e-06
2.08263e-05
-2.00421e-05
-6.62092e-06
5.83672e-06
1.95829e-05
-1.93474e-05
-5.09418e-06
4.85863e-06
1.92363e-05
-1.92343e-05
-4.02692e-06
4.02489e-06
1.94215e-05
-1.98755e-05
-3.34812e-06
3.80208e-06
2.05984e-05
-2.15371e-05
-3.05282e-06
3.99151e-06
2.26334e-05
-2.39301e-05
-3.16981e-06
4.46651e-06
2.55215e-05
-2.73731e-05
-2.50557e-06
4.35714e-06
2.93421e-05
-3.12329e-05
-9.6191e-08
1.98701e-06
3.2846e-05
-3.38392e-05
5.71437e-06
-4.72112e-06
3.3733e-05
-3.18813e-05
1.52036e-05
-1.70552e-05
2.73389e-05
-1.99161e-05
2.80425e-05
-3.54533e-05
1.18029e-05
-5.50034e-06
3.79229e-05
-2.42178e-05
3.60906e-06
-3.40721e-06
2.62237e-05
-1.92662e-06
3.6794e-06
-3.76445e-06
1.31631e-05
-7.38157e-07
-1.07226e-11
2.13112e-11
-1.55384e-11
6.85265e-11
-1.47189e-11
-6.27319e-11
6.70405e-12
7.45241e-12
-9.20614e-12
8.88897e-13
6.61064e-14
1.46172e-11
-1.64566e-11
-3.30929e-14
2.64737e-13
1.1165e-10
-1.32752e-10
1.54726e-12
3.2716e-11
1.30786e-10
-1.17526e-10
2.28753e-11
4.3212e-12
5.15954e-10
-4.03511e-09
3.52005e-09
-1.77201e-13
2.55298e-08
-1.35462e-07
1.0995e-07
-1.64893e-11
4.67007e-07
-1.66963e-06
-2.01054e-10
-3.38579e-10
3.03621e-06
-4.81044e-06
-6.62081e-07
-5.37446e-09
8.06316e-06
-1.26012e-05
-1.29375e-06
-7.75834e-08
1.62785e-05
-1.76713e-05
-1.69985e-06
-5.70636e-07
1.76017e-05
-1.70632e-05
-3.29325e-06
-6.06397e-07
1.64295e-05
-1.57413e-05
-4.33303e-06
5.6161e-07
1.54825e-05
-1.64245e-05
-6.16159e-06
3.46128e-06
1.93261e-05
-2.31139e-05
-7.40047e-06
1.01268e-05
2.79325e-05
-3.34443e-05
-5.46073e-06
1.09725e-05
3.89665e-05
-4.37523e-05
2.58558e-06
2.2113e-06
4.7206e-05
-4.95572e-05
1.83494e-05
-1.61174e-05
5.15757e-05
-2.35102e-05
3.45261e-05
-1.21755e-05
3.39981e-05
-3.92562e-05
1.08392e-05
-9.06347e-06
4.53684e-05
-2.81992e-05
3.4492e-06
-5.49292e-06
2.06594e-05
-1.62919e-05
1.83617e-06
-5.45508e-06
-2.33569e-11
2.36711e-11
-3.63184e-13
6.97722e-13
-9.09967e-14
-7.76881e-13
9.85244e-14
1.78128e-14
-1.51883e-14
-5.58134e-15
1.55751e-15
2.2241e-14
-7.18792e-14
-3.58459e-14
1.11627e-14
-6.05916e-14
-2.29639e-11
-1.35341e-11
1.24955e-11
1.01677e-09
-1.06477e-09
-4.27909e-10
8.46035e-10
1.6696e-10
-2.32927e-12
-3.37214e-13
8.36113e-11
3.38566e-12
-3.61396e-12
8.39539e-16
9.91546e-13
4.78025e-12
-5.97951e-12
3.68512e-13
2.41738e-12
8.08447e-12
-1.52657e-11
7.75513e-12
-3.49703e-13
9.08544e-11
-3.35136e-10
2.50266e-10
-6.71183e-12
1.26287e-09
-4.68638e-09
3.42062e-09
-2.18081e-11
1.88917e-08
-6.22553e-08
4.40186e-08
-7.77025e-10
1.84755e-07
-4.61125e-07
2.9111e-07
-1.58191e-08
8.47454e-07
-8.58307e-07
1.17037e-07
-1.52527e-07
6.90634e-07
-5.06524e-05
-2.10024e-06
-1.39552e-06
9.01142e-05
-7.92154e-05
-9.67522e-06
-1.08757e-06
7.55654e-05
-8.28568e-05
-6.83574e-06
1.42013e-05
0.000112828
-0.000127809
-2.52022e-06
3.92285e-05
0.000125617
-0.000165488
-2.09485e-06
7.63169e-06
0.000166412
-0.000168023
7.55475e-06
-5.34625e-06
0.000159207
-0.000141419
1.00157e-05
-2.68785e-05
9.07472e-05
-8.33485e-05
1.11821e-05
-4.02962e-06
-6.23558e-11
8.16242e-11
3.22418e-12
6.83013e-15
-3.56199e-16
-2.7069e-14
1.93241e-14
1.8713e-16
-2.60597e-16
-1.2843e-15
6.80925e-16
8.90837e-16
-1.88502e-14
-8.03967e-15
2.47024e-14
-2.42315e-14
1.10949e-12
-1.27808e-12
6.73154e-14
-1.12477e-11
-4.96289e-10
-4.54505e-10
-1.58191e-11
6.55653e-10
-5.58581e-10
-9.54076e-10
9.46169e-10
2.62231e-11
-2.53742e-11
-4.9195e-12
4.00364e-12
3.81015e-11
-1.25037e-11
-4.07681e-11
1.72788e-11
1.54985e-11
-6.70835e-10
-4.42096e-11
6.8189e-11
7.23964e-10
-7.67462e-10
-8.11192e-12
1.1583e-10
7.07823e-10
-1.11735e-10
-2.90925e-12
2.92667e-11
1.48555e-10
-2.22251e-10
-4.81406e-14
1.94469e-11
-2.17164e-10
-5.90341e-10
2.08329e-09
-5.06827e-10
6.82224e-09
-1.94411e-08
4.65675e-08
-4.67053e-08
3.32375e-08
-5.19166e-08
4.14718e-07
-7.06406e-07
8.09816e-07
-6.40545e-05
6.22468e-07
3.93693e-06
0.000163225
-0.000161044
-5.69618e-05
7.24765e-05
4.32471e-05
-2.23587e-05
-1.96077e-05
4.41424e-06
2.03106e-05
-1.05709e-05
-5.40896e-07
4.07556e-08
4.01589e-06
-6.04319e-05
1.19388e-05
-6.28053e-06
0.000124569
-0.000123589
4.69446e-05
-5.14762e-05
0.000103235
-3.63652e-05
1.49335e-05
-4.59184e-05
-3.92097e-11
9.03563e-12
3.17089e-11
-3.76906e-13
4.58128e-10
-3.49908e-14
8.2874e-09
-2.89157e-10
4.08336e-12
-6.53153e-16
8.81092e-10
4.37591e-13
-7.22711e-15
-1.56572e-12
5.06285e-12
3.87711e-15
6.92701e-16
-6.75243e-15
8.40245e-16
5.42876e-15
-2.08439e-12
1.51017e-12
-1.22512e-13
2.00101e-11
-9.88764e-12
-8.46764e-11
6.23495e-13
1.12735e-11
-5.81465e-12
-4.00377e-12
8.26454e-12
2.95273e-12
-1.10222e-12
-8.75893e-13
3.57838e-12
3.75804e-12
-4.96345e-11
-5.96244e-12
1.60139e-11
2.49891e-10
-3.20726e-10
-2.0177e-10
1.14796e-11
3.44233e-11
-9.67383e-12
-2.27227e-11
1.36398e-12
8.22825e-12
-5.59624e-12
-1.34523e-11
3.26368e-12
1.8503e-11
-4.56266e-10
4.55345e-11
2.17043e-11
5.06374e-09
-3.76013e-08
2.49254e-08
-6.63813e-09
2.00919e-07
-8.52973e-07
4.36626e-07
-1.46362e-07
1.26787e-05
-2.81872e-05
-8.14563e-06
8.23382e-07
1.65735e-05
-4.71209e-06
-1.43158e-05
5.42575e-06
1.37332e-06
-8.71879e-07
-6.897e-07
2.16147e-07
7.93313e-07
-8.09033e-07
8.74804e-08
-1.15628e-07
1.13233e-06
-2.44091e-06
2.22506e-06
-1.34024e-06
2.22412e-05
-0.000109393
3.61151e-05
-2.33456e-05
0.000113751
-0.000109545
5.24925e-05
-5.22342e-05
-3.7756e-12
2.61928e-12
2.56709e-12
-1.62257e-09
1.51582e-09
-8.92553e-09
9.55163e-09
-1.16948e-09
-3.59568e-11
-1.13869e-09
5.66944e-10
1.41817e-12
-7.44912e-17
-6.51063e-12
7.0251e-12
3.46894e-17
-9.33842e-17
-1.90349e-16
3.04304e-17
8.7782e-16
-1.30831e-14
4.57996e-15
1.65254e-15
8.29259e-14
-1.27216e-13
1.09676e-14
-8.37893e-15
1.76888e-13
-3.31994e-13
-5.13491e-13
4.81926e-13
2.19898e-12
-3.8277e-11
-1.3127e-11
3.91561e-11
4.49951e-11
-3.52276e-11
-3.5988e-11
3.22049e-11
4.75603e-12
-2.06238e-12
-3.31073e-12
8.16351e-13
1.438e-12
-1.90647e-12
-8.49556e-13
9.14217e-13
2.75534e-12
7.16047e-12
-4.62276e-12
1.03307e-11
-5.01753e-12
-9.0349e-11
-3.12951e-11
1.1655e-10
5.88238e-10
-3.37982e-09
1.69895e-09
-5.77447e-10
1.92222e-08
-7.79574e-08
3.38269e-08
-1.30762e-08
2.29632e-06
-6.98348e-06
-4.67858e-07
2.07308e-06
2.01789e-06
-4.73482e-07
-2.55174e-06
1.12635e-06
3.99399e-07
-4.11687e-07
-1.69997e-07
1.81182e-07
3.882e-07
-3.64673e-07
1.49332e-07
-1.84066e-07
4.3954e-07
-7.14278e-07
8.87801e-07
-7.06014e-07
1.87902e-06
-1.45267e-05
7.15081e-06
-3.13419e-06
8.05698e-05
-8.10283e-05
4.74307e-05
-4.01938e-05
-2.19091e-12
1.96883e-12
-3.96451e-15
-3.59796e-10
6.53836e-10
-9.72684e-09
3.11104e-10
1.49292e-11
-5.75766e-13
-2.53531e-11
1.19943e-12
-5.52294e-14
-1.88661e-20
-4.54872e-12
-2.70075e-15
5.26322e-19
-1.76964e-18
-4.05232e-18
1.89876e-18
2.4607e-17
-1.20247e-16
-5.06702e-16
2.3147e-16
2.06621e-16
-1.17673e-13
-7.09283e-14
1.19653e-13
2.8307e-13
6.83079e-13
-1.12326e-12
5.06423e-12
6.06903e-12
-3.32485e-11
-3.72182e-11
9.61227e-12
3.27385e-11
-1.45846e-12
-2.23963e-11
1.29084e-12
9.66112e-13
-1.07889e-12
-7.06988e-13
7.94827e-13
7.19625e-13
-1.86362e-12
-1.25947e-12
2.92195e-12
1.89152e-11
-1.60329e-10
-2.6312e-11
1.37652e-10
1.11354e-09
-6.46497e-09
-8.86472e-10
5.02934e-09
2.55406e-08
2.04745e-08
3.64615e-10
-7.68605e-08
1.20625e-06
-5.19382e-06
2.42276e-07
-1.27894e-06
7.02633e-06
-6.91991e-06
-2.9041e-06
3.67394e-06
4.37779e-06
-2.38175e-07
-1.95067e-06
5.0936e-06
1.78798e-07
-1.33691e-07
-1.82746e-07
1.36285e-07
5.88196e-08
-5.66656e-08
2.20622e-07
-2.27049e-07
2.02153e-07
-4.68654e-07
6.00457e-07
-7.13189e-07
2.85809e-05
-5.85115e-05
1.00455e-05
-2.68543e-05
3.6295e-05
-6.07771e-06
8.63036e-06
-3.89622e-06
-2.00737e-13
5.87077e-15
-5.8214e-15
-7.30716e-13
3.83168e-12
-1.52224e-11
1.69066e-12
1.65339e-14
9.8369e-16
-1.6712e-13
2.44738e-14
-9.4372e-17
-3.94779e-17
-1.09723e-15
1.68044e-15
1.83763e-19
-1.87844e-18
-1.39436e-18
1.21975e-18
5.39758e-18
5.35969e-18
-2.32648e-16
2.51643e-16
-1.68127e-15
-4.0864e-13
-2.78218e-13
2.84139e-13
1.37142e-12
-8.71074e-13
-2.94999e-12
7.79637e-13
3.12848e-13
-5.23384e-13
4.09505e-14
9.36704e-14
2.68585e-13
-4.06644e-13
-2.24088e-13
1.69577e-13
6.42796e-13
-1.32049e-13
-1.23203e-12
1.15093e-12
2.27783e-13
-1.51482e-12
-5.45687e-12
5.49047e-12
1.30033e-11
-1.07087e-10
-3.04693e-10
3.12141e-10
7.91095e-10
-4.90338e-09
-1.1329e-08
1.12753e-08
2.55956e-08
-1.7434e-06
2.17349e-07
-1.17824e-07
4.7773e-06
-6.10924e-06
1.19856e-06
-1.2606e-06
7.44452e-06
-7.13234e-06
-3.84417e-06
2.96225e-06
1.23175e-06
-1.7063e-07
-1.78134e-06
7.27954e-07
8.1697e-08
-7.01635e-08
-4.48659e-08
3.19447e-08
1.53827e-07
-4.59144e-07
2.33952e-07
1.0108e-08
-2.12123e-06
-3.01446e-05
1.26859e-06
-5.5455e-06
6.56634e-05
-6.21143e-05
2.2609e-05
-1.97343e-05
5.63756e-05
-5.3114e-07
3.69508e-06
-3.37228e-06
-2.89416e-15
8.11115e-16
-1.54548e-16
5.77589e-15
8.0049e-15
-1.9071e-13
3.01036e-14
-7.05045e-17
-3.37041e-17
-6.50026e-15
2.128e-15
5.23683e-17
-4.05715e-17
-1.08703e-15
3.50496e-16
1.51241e-19
-1.2889e-18
-1.15856e-18
9.43592e-19
1.31877e-17
-9.23737e-16
-5.97435e-16
7.17579e-16
1.1084e-14
-1.8209e-14
-8.42104e-14
1.86061e-14
3.49267e-14
-4.30321e-14
-1.28666e-13
7.05898e-14
5.27516e-14
-5.60472e-14
-9.85595e-14
1.05756e-13
8.32598e-14
-3.14216e-13
-2.19017e-13
2.38712e-13
3.94244e-13
-1.99698e-13
-7.3481e-13
1.36001e-13
1.1295e-13
7.70576e-13
-2.49032e-12
1.06099e-12
-6.20698e-12
4.17027e-11
-1.24173e-10
5.97088e-11
-2.23034e-10
6.54488e-10
-3.91921e-09
2.31801e-09
2.73337e-09
-7.27685e-08
2.66853e-08
7.05462e-09
2.82649e-06
-7.22082e-06
7.3221e-07
7.64964e-08
8.28399e-06
-8.65325e-06
-3.18491e-06
3.54082e-06
1.02014e-06
-9.08123e-07
-3.94278e-07
9.31967e-07
1.67624e-06
-9.17242e-07
-1.19117e-07
6.62037e-07
3.72255e-07
-3.72481e-07
-6.60323e-08
-1.97067e-09
9.05892e-07
-2.94398e-05
5.85412e-06
-1.61315e-06
6.28383e-05
-5.92128e-05
1.89874e-05
-1.6189e-05
5.34208e-05
-2.43135e-08
2.26614e-06
1.59053e-07
-1.502e-16
2.45431e-17
-5.3898e-18
2.08694e-16
-1.02709e-16
-3.79936e-15
1.77211e-15
2.40983e-17
-6.03707e-18
-4.87838e-16
8.89671e-17
3.91435e-18
-3.26595e-18
-6.58847e-17
1.00107e-17
6.77175e-20
-3.06756e-19
-6.13558e-19
3.65551e-19
6.52842e-18
-1.00102e-16
-3.55737e-16
1.29329e-16
1.29722e-15
-9.22242e-15
-1.36492e-14
1.4193e-14
2.66937e-14
-4.05613e-14
-8.47653e-14
9.41687e-14
4.44572e-14
-3.8419e-14
-1.08194e-13
8.94644e-14
4.50571e-14
-4.0819e-14
-1.25678e-13
5.43483e-14
2.11266e-14
-2.08147e-14
-3.4655e-14
2.15728e-14
3.67036e-14
1.07475e-13
-5.03864e-13
2.39835e-13
-1.33421e-12
1.03652e-11
-3.24414e-11
1.61924e-11
-7.25841e-11
3.85518e-10
-1.63385e-09
9.0069e-10
-3.33713e-10
-1.5562e-08
-2.15487e-08
1.63703e-08
1.45759e-07
-4.40225e-06
-2.2091e-07
5.69774e-08
8.72474e-06
-9.01565e-06
-4.07637e-06
3.08633e-06
9.02991e-06
-5.37657e-06
-7.35982e-06
7.14008e-06
1.4154e-06
-4.95742e-07
-7.35583e-08
1.34494e-07
1.25597e-07
-1.34383e-07
1.09188e-08
-1.31218e-08
1.68431e-07
-4.71596e-07
4.07099e-07
-1.69631e-07
8.83369e-06
-2.17117e-05
1.39622e-05
-3.00041e-06
1.34157e-05
-5.32853e-07
-3.84184e-07
3.84929e-07
-3.76851e-18
5.06709e-19
-1.36255e-19
7.17e-18
-3.9701e-18
-3.94693e-16
5.26313e-17
1.0717e-18
-2.23424e-19
-1.5942e-17
2.64789e-18
9.18452e-20
-4.07223e-20
-1.28906e-18
1.47319e-19
2.42814e-20
-6.31513e-20
-2.26449e-19
1.40336e-19
1.63719e-18
-7.06969e-17
-1.03591e-16
1.10148e-16
1.31553e-15
-8.12941e-15
-1.49773e-14
1.42934e-14
1.76115e-14
-1.98742e-14
-8.19727e-14
4.76789e-14
1.44422e-14
-7.88623e-15
-5.11049e-14
1.74332e-14
5.55044e-15
-3.43634e-15
-1.9092e-14
5.43628e-15
3.59143e-15
-4.44278e-15
-1.15567e-14
4.96907e-15
7.4533e-15
3.71221e-14
-9.91034e-14
4.66044e-14
-3.24423e-13
3.06108e-12
-6.09845e-12
1.82939e-12
-2.35849e-11
1.39821e-10
-2.71669e-10
5.99689e-11
-2.61657e-10
-1.58864e-09
-3.50593e-09