/*--------------------------------*- C++ -*----------------------------------*\
| =========                 |                                                 |
| \\      /  F ield         | OpenFOAM: The Open Source CFD Toolbox           |
|  \\    /   O peration     | Version:  v1912                                 |
|   \\  /    A nd           | Website:  www.openfoam.com                      |
|    \\/     M anipulation  |                                                 |
\*---------------------------------------------------------------------------*/
FoamFile
{
    version     2.0;
    format      ascii;
    class       volScalarField;
    location    "0.75";
    object      alpha.water;
}
// * * * * * * * * * * * * * * * * * * * * * * * * * * * * * * * * * * * * * //

dimensions      [0 0 0 0 0 0 0];


internalField   nonuniform List<scalar> 
9072
(
1
1
1
1
1
1
1
1
1
1
1
1
1
1
0.995543
0.946398
0.999984
0.999765
0.993564
0.995275
0.999906
0.999923
0.999999
1
1
1
1
1
1
1
1
1
1
1
1
1
0.999999
0.977726
0.944577
0.999994
0.999994
0.999483
0.983349
0.846959
0.999997
0.999962
1
1
1
1
1
1
1
1
1
1
1
1
1
1
0.999999
0.995947
0.999081
0.999997
0.99946
0.846496
0.846496
0.999979
0.999979
1
1
1
1
1
1
1
1
1
1
1
1
1
1
1
1
1
1
0.999847
0.935254
1
0.999995
1
1
1
1
1
1
1
1
1
1
1
1
1
1
1
1
1
1
1
1
1
1
1
1
1
1
1
1
1
0.999999
1
1
1
1
1
1
1
1
1
1
1
1
1
1
1
1
1
1
1
1
1
0.955797
0.991665
1
1
1
1
1
1
1
1
1
1
1
1
1
1
1
1
1
0.983161
1
1
1
0.921804
1
1
1
1
1
1
1
1
1
1
1
1
1
1
1
1
1
1
0.934939
0.953141
0.964063
0.965502
0.99475
0.99693
0.998096
0.998099
0.977527
0.986724
0.997481
0.967079
0.976229
0.955497
0.921867
0.917349
0.837278
0.836238
0.880835
0.943465
0.804387
6.38637e-05
6.20478e-05
0.000130358
0.323245
0.995764
0.998102
0.99761
0.998105
0.99486
0.991208
0.401579
0.0398699
0.804774
0.744346
0.921974
0.890485
0.851232
0.875952
0.0010017
7.42566e-05
6.20478e-05
6.35316e-05
0.234193
0.997787
0.998106
0.998107
0.997592
0.976585
0.685509
0.00417696
0.00426263
0.708058
0.610906
0.74019
0.660095
0.345167
0.924499
0.232757
0.0918399
0.000112434
0.00801184
0.99235
0.998068
0.998107
0.998107
0.998089
0.989572
0.00470082
0.00417905
0.00505022
0.693404
0.744914
0.620097
0.70733
0.344322
0.924521
0.905748
0.150098
0.0032471
0.957212
0.982825
0.875135
0.998099
0.998105
0.997875
0.789238
0.00825946
0.0202622
0.268714
0.962415
0.828284
0.0464214
0.524291
0.370632
0.158261
0.00904861
0.00651354
0.848793
0.964863
0.505618
0.00377184
0.916579
0.998078
0.996394
0.014944
0.0117006
0.952366
0.962331
0.962712
0.681356
0.0459762
0.283406
0.420781
0.023683
0.00813092
0.737952
0.962137
0.577558
0.00310711
0.0025582
0.936184
0.997842
0.969099
0.0180271
0.805699
0.939721
0.957151
0.96187
0.124036
0.0451582
0.0562635
0.656977
0.909054
0.972937
0.972267
0.727752
0.00610558
0.00187964
0.00187964
0.535479
0.997621
0.827885
0.0191614
0.778828
0.0648378
0.576635
0.358031
0.0419408
0.195772
0.622469
0.989839
0.249654
0.417872
0.394043
0.680952
0.876638
1
1
1
1
1
1
1
1
1
1
1
1
1
1
1
0.999985
0.99991
0.999956
3.70373e-05
1.12753e-05
3.07272e-06
7.61148e-06
2.44919e-06
0.0095405
0.273206
0.759517
0.985267
1
1
1
1
1
1
1
1
1
0.999999
0.999931
0.880823
0.350691
0.295633
5.05944e-07
8.48274e-08
6.82327e-09
1.70252e-08
2.12816e-06
1.09111e-06
2.08482e-08
3.38366e-08
0.0107174
0.0701615
0.24269
0.47892
0.636761
0.790133
0.90883
1
1
0.999904
0.999828
0.641325
0.318694
0.294593
0.134256
7.865e-09
9.60122e-10
4.04999e-11
4.6312e-10
5.79677e-08
2.31954e-05
2.28409e-08
2.53346e-08
2.78281e-08
3.39646e-08
7.74342e-08
8.20112e-07
5.18859e-06
7.03411e-05
0.000957351
0.241908
0.990914
0.993101
0.922414
0.461475
0.725934
0.734813
0.442211
7.03923e-07
1.83593e-11
1.25751e-11
1.43993e-11
7.12042e-10
5.15888e-06
2.33515e-05
5.98211e-08
1.93046e-06
6.39997e-06
9.5088e-06
1.25561e-06
4.11267e-07
1.13123e-05
7.42735e-05
0.00124387
0.16427
0.914776
0.0187421
0.0595736
0.176053
0.663402
0.414065
4.20214e-08
4.30769e-05
9.27799e-06
9.97734e-08
6.79584e-12
2.77272e-09
1.95565e-07
2.67089e-07
6.82681e-08
5.61925e-07
5.19829e-06
2.31446e-08
6.97009e-08
1.23617e-06
4.49196e-05
0.00128304
0.133227
0.00805606
0.00199522
0.00234115
0.00555043
0.398692
0.644336
3.39808e-08
0.000106166
1.74177e-05
1.60446e-07
1.25804e-12
4.23816e-11
1.51756e-09
6.43029e-09
5.21959e-07
9.41503e-07
1.29288e-08
1.79887e-08
7.27344e-08
3.89775e-07
9.27617e-06
0.000254025
0.0443988
0.00204578
0.00188069
0.00192708
0.00259492
0.0299348
0.63679
3.3771e-08
5.71241e-05
5.02292e-08
3.31466e-08
1.74134e-14
3.05998e-12
1.13766e-09
5.48047e-08
6.78936e-07
2.49056e-07
1.17667e-08
1.5021e-08
1.57572e-07
6.59483e-06
0.000198411
0.0350139
0.0530391
0.0226467
0.00187592
0.00188522
0.00341126
0.364418
0.0307747
6.70095e-10
5.6241e-08
7.68994e-10
4.46819e-12
1.78493e-14
1.05002e-12
4.2843e-09
5.04105e-08
1.94666e-09
3.13851e-09
1.81742e-08
2.11527e-08
4.91899e-07
2.56221e-05
0.00610992
0.0517288
0.0520146
0.00188525
0.00187596
0.00228558
0.13329
0.456131
0.141452
1.87734e-11
8.01841e-10
4.01909e-11
9.00935e-12
1.1188e-14
8.31983e-12
5.90033e-10
8.25012e-10
1.38867e-09
3.24417e-09
6.33381e-09
4.96206e-09
1.62291e-07
7.53156e-06
0.000237581
0.0464996
0.0484618
0.00223542
0.0111311
0.000908924
0.0883265
0.456131
0.118462
7.39499e-13
2.60445e-11
2.62002e-12
3.58666e-13
4.19036e-15
2.34289e-12
1.75588e-10
1.18013e-09
1.22702e-09
1.0715e-09
3.18056e-10
8.54421e-10
3.44653e-08
1.96345e-06
8.95431e-05
0.0129558
0.0525031
0.0474222
0.00234869
0.000312452
0.000917764
0.122751
0.0147067
1.40056e-14
1.54055e-12
8.04837e-14
3.70046e-15
1.77821e-15
1.04678e-12
1.77908e-10
7.64036e-10
3.5936e-10
1.16444e-10
7.48302e-11
2.71196e-10
6.33658e-09
3.75589e-07
1.88517e-05
0.000150217
0.00760889
0.0609334
0.000259275
0.00023947
0.000374679
0.0281069
0.0117852
-9.64507e-16
2.79538e-14
9.06057e-16
-1.41698e-15
6.87763e-18
2.49863e-12
8.13478e-11
9.57088e-11
1.7668e-11
6.60473e-12
8.91112e-12
1.09179e-10
8.1537e-10
3.45892e-08
8.97908e-07
1.07275e-05
0.000133847
0.0716613
0.0546433
0.000228284
0.000236824
0.00295661
0.00165443
-4.76899e-15
2.95532e-16
-4.36298e-16
-2.5942e-15
3.98726e-15
2.22077e-12
7.37629e-12
2.9518e-12
6.83269e-13
4.39026e-13
3.02517e-12
3.40129e-11
2.54106e-10
1.81718e-09
5.19948e-08
2.09972e-06
0.00181883
0.0748497
0.0056686
0.000227937
0.000227937
0.000232133
0.000456763
-5.0378e-15
-1.8365e-17
-8.95698e-16
-1.6387e-15
2.00336e-14
3.74325e-13
2.34959e-13
1.13723e-13
7.06215e-14
2.14991e-13
2.39826e-12
7.88653e-12
1.3171e-11
1.18985e-10
8.9543e-09
1.69988e-06
0.000578401
0.0748497
0.0597243
0.000227973
0.000228011
0.000237754
0.00491413
-4.25748e-15
-9.33338e-17
-7.34744e-16
-7.81748e-16
1.02781e-14
1.52423e-14
7.61442e-15
9.40858e-15
2.76201e-14
7.14887e-13
3.2039e-12
-9.12802e-12
3.3559e-11
3.4874e-05
0.00011811
2.74396e-05
0.000106512
0.0643181
0.07549
0.000227828
0.000231845
0.000368046
0.0685012
-3.29104e-15
-8.3974e-17
-4.75221e-16
-4.11357e-16
6.16116e-16
4.50899e-16
3.99414e-16
2.47854e-15
2.38629e-13
4.00731e-12
8.67141e-12
2.5798e-10
1.31922e-05
0.000144796
0.000144641
1.05214e-05
2.52171e-05
7.40283e-05
0.0166072
0.0812295
0.00032903
0.0195566
0.0719811
-2.43993e-15
-6.04634e-17
-2.74425e-16
-2.2027e-16
1.62781e-18
-7.0974e-18
-4.6354e-16
-3.92599e-15
2.09707e-13
2.79041e-12
4.99939e-12
2.49324e-08
0.000143785
0.000144796
6.7493e-06
5.76658e-06
5.76659e-06
8.76523e-06
0.00030049
0.0885068
0.0880052
0.0842949
1.32684e-07
-1.77821e-15
-3.76691e-17
-8.19329e-17
-3.93861e-17
-3.46435e-16
-2.78524e-14
1.91438e-11
-1.05814e-51
1.01536e-25
0.00138546
1.54767e-11
5.85959e-06
4.42832e-05
3.6139e-05
1.8517e-05
0.0515029
0.0732992
0.0772954
0.0884554
0.0885116
0.0885001
0.0468058
6.74051e-09
-9.44791e-17
-1.66318e-16
-4.93205e-13
-1.15682e-10
-8.40082e-09
-1.79648e-08
0.00367559
0.0135624
0.0131067
0.00654587
0.00178745
0.00013932
3.5319e-05
0.00128542
0.0396083
0.0214306
0.00301208
0.0712325
0.0514358
0.00480442
0.000733895
-3.0424e-08
-3.63268e-10
7.08586e-15
2.09687e-13
4.61616e-10
1.16981e-07
1.10717e-05
0.00225754
0.016642
0.000162441
3.32392e-05
5.24283e-05
0.000199249
8.95776e-05
0.00013825
0.0213241
0.0045613
0.00323185
0.000455866
4.52776e-05
2.30067e-05
2.31967e-05
1.31099e-05
9.54483e-10
2.0655e-10
1.15381e-13
6.27665e-12
7.52916e-09
1.95512e-06
0.000150952
0.0178545
0.0177743
0.0118103
2.95593e-05
2.98305e-05
3.96601e-05
5.61292e-05
0.000397162
0.00554022
0.00174404
0.00316214
1.39927e-06
1.65195e-06
1.37163e-06
2.1626e-05
2.75444e-05
3.43571e-08
5.38183e-08
1.43332e-14
7.03619e-12
7.00291e-09
1.73813e-06
0.000418545
0.0178545
0.0178287
0.00276542
3.24286e-05
0.000573409
0.000239449
5.14591e-05
0.000306075
0.000172215
0.00268806
1.3807e-06
1.02085e-06
1.0351e-06
1.14874e-06
5.35951e-06
1.02237e-05
1.71372e-08
1.28758e-08
6.82925e-16
2.31213e-11
1.07001e-08
2.83204e-06
0.000228133
0.00144441
0.00796746
2.58117e-05
2.58117e-05
1.85848e-05
0.000485224
0.00344775
8.67716e-05
0.000102959
0.00268806
1.08393e-06
1.0218e-06
3.58838e-05
5.45997e-05
2.1772e-05
7.98503e-09
3.2571e-10
1.44917e-10
-1.49421e-23
1.20754e-12
2.63777e-10
1.9767e-08
2.28693e-06
4.53736e-05
5.62085e-05
4.89975e-05
3.14383e-05
1.46183e-05
6.52678e-06
0.00627951
0.00647335
9.64002e-05
0.00102241
1.59798e-05
7.75213e-06
6.0933e-05
5.12222e-06
1.0774e-08
4.69846e-10
2.31135e-10
1.90762e-10
-1.21757e-16
2.79742e-14
5.59478e-12
1.09878e-09
1.59931e-07
2.95716e-06
3.93557e-06
1.68619e-06
3.23036e-07
2.45854e-07
1.77664e-07
0.00319513
0.00797644
0.000863608
0.000168255
6.43394e-06
3.56678e-05
8.88888e-06
3.47029e-09
3.24858e-10
1.82603e-10
1.37959e-10
3.95123e-11
-8.72512e-17
1.14421e-15
6.41069e-13
4.66356e-11
8.51866e-09
1.58363e-07
2.10495e-07
1.01548e-07
2.87379e-08
9.88734e-09
7.22827e-09
1.00591e-06
0.00796009
0.00793045
0.000686338
8.5032e-07
4.84773e-07
1.27565e-08
1.48618e-09
4.81404e-10
9.67615e-11
1.36905e-11
1.58559e-12
-4.77942e-17
1.08948e-16
3.27368e-14
1.85653e-12
2.51429e-10
5.38066e-09
9.23862e-09
5.65985e-09
2.15934e-09
1.16984e-09
5.38389e-10
-3.23235e-08
3.58865e-05
0.00241002
0.000814505
1.54188e-05
7.93055e-07
3.5108e-08
1.42207e-09
6.60946e-11
5.81703e-12
4.42546e-13
1.66917e-14
-2.32323e-17
3.4753e-18
2.0765e-15
1.10373e-13
3.92352e-12
1.27028e-10
2.44711e-10
3.88146e-10
4.89334e-10
4.80303e-10
2.11591e-10
9.78528e-10
1.23186e-06
3.50892e-06
1.47693e-06
8.01204e-07
7.495e-09
4.93248e-10
3.95093e-11
3.55022e-12
1.45731e-13
5.31241e-15
9.52211e-17
-1.02517e-17
2.02882e-21
3.64718e-17
1.50182e-15
9.59745e-14
5.91716e-12
2.96267e-11
4.7575e-11
7.40451e-11
8.45226e-11
8.71777e-11
4.60095e-11
2.27866e-08
4.89568e-08
1.72296e-08
4.3358e-09
8.98384e-10
1.07657e-10
4.91655e-12
1.24907e-13
2.59999e-15
4.7674e-17
5.48369e-19
-4.11951e-18
-3.7395e-20
8.24554e-19
3.94774e-17
3.85472e-15
2.18302e-13
1.24871e-12
2.05e-12
3.26504e-12
4.61133e-12
5.34668e-12
2.49576e-12
2.99833e-10
5.9508e-10
2.81755e-10
2.59846e-10
5.37984e-11
2.93699e-12
8.4221e-14
1.77936e-15
2.81208e-17
3.2088e-19
1.06942e-21
-1.50686e-18
-2.79437e-20
2.70552e-20
1.50869e-18
7.42764e-17
4.57049e-15
3.44445e-14
7.8635e-14
1.23859e-13
1.74421e-13
1.88249e-13
1.11827e-14
1.79052e-12
1.46515e-11
2.93087e-11
8.77633e-12
8.57502e-13
3.38561e-14
7.83707e-16
1.35681e-17
1.7161e-19
1.13733e-21
2.95514e-24
-5.01138e-19
-1.15613e-20
5.04331e-22
3.24146e-20
1.30603e-18
7.80388e-17
7.69765e-16
2.06306e-15
3.75924e-15
5.38039e-15
5.50883e-15
1.71905e-15
7.70414e-15
1.87296e-13
2.33344e-13
7.2347e-14
6.98118e-15
2.52296e-16
4.62601e-18
6.3983e-20
6.21546e-22
2.7159e-24
6.05541e-27
-1.51365e-19
-4.06138e-21
0
5.39585e-22
2.35718e-20
1.32832e-18
1.53511e-17
4.73859e-17
9.38616e-17
1.36317e-16
1.3105e-16
6.30642e-17
5.97143e-17
6.1986e-16
9.24151e-16
3.88848e-16
4.14972e-17
1.3999e-18
2.08251e-20
2.18039e-22
1.56563e-24
5.41722e-27
9.23056e-30
-4.14841e-20
-1.26058e-21
-1.36203e-23
9.05487e-24
3.93054e-22
2.11347e-20
2.64564e-19
9.30895e-19
1.9772e-18
2.84998e-18
2.55275e-18
1.27105e-18
4.03235e-19
4.57688e-18
5.32126e-18
2.08914e-18
2.0954e-19
6.18616e-21
7.78165e-23
5.81103e-25
3.14268e-27
8.24045e-30
-1.07037e-33
-1.02843e-20
-3.47621e-22
-4.63494e-24
1.03697e-25
6.27114e-24
2.98372e-22
3.83503e-21
1.42182e-20
3.18614e-20
4.65543e-20
3.96399e-20
1.97755e-20
3.18737e-21
2.69204e-20
3.39314e-20
1.07976e-20
9.1082e-22
2.31882e-23
2.40315e-25
1.31473e-27
5.16855e-30
7.98576e-33
-2.70064e-32
-2.28851e-21
-8.68649e-23
-1.06253e-24
-5.65988e-31
8.32208e-26
3.67887e-24
4.79429e-23
1.88813e-22
4.31448e-22
6.19289e-22
5.02041e-22
2.40154e-22
3.3835e-23
1.26343e-22
1.64268e-22
4.87874e-23
3.4155e-24
7.22648e-26
6.24136e-28
2.54536e-30
6.62516e-33
-8.46996e-39
-5.74053e-32
-4.51384e-22
-2.05108e-23
-2.06742e-25
-4.32688e-27
9.255e-28
4.12652e-26
5.59406e-25
2.19481e-24
5.10043e-24
7.21505e-24
5.58221e-24
2.38047e-24
2.37845e-25
4.40075e-25
6.21528e-25
1.78763e-25
1.06094e-26
1.92003e-28
1.39532e-30
4.29422e-33
6.14999e-36
-1.7547e-36
-7.71142e-32
-7.7998e-23
-4.7138e-24
-3.74999e-26
-8.56446e-28
-1.28349e-33
4.3921e-28
6.16759e-27
2.36347e-26
5.43978e-26
7.29122e-26
5.37366e-26
1.72111e-26
4.52531e-28
1.49902e-27
1.98128e-27
5.32046e-28
2.93167e-29
4.57557e-31
2.65955e-33
5.74965e-36
1.16193e-39
-1.51781e-36
-6.39792e-32
-1.17795e-23
-1.03488e-24
-6.98908e-27
-1.22953e-28
-1.82132e-29
3.74964e-30
6.33809e-29
2.34555e-28
5.15332e-28
6.57041e-28
4.46923e-28
1.12256e-28
-1.58946e-27
0
7.5553e-30
1.6664e-30
7.64614e-32
9.5723e-34
4.11312e-36
3.91157e-39
-5.40088e-39
-7.6078e-37
-2.86052e-32
-1.57099e-24
-2.06928e-25
-1.37635e-27
-1.69271e-29
-2.56018e-30
-5.13172e-37
5.89674e-31
2.25768e-30
4.45424e-30
5.30114e-30
3.36952e-30
7.18628e-31
-1.23426e-28
-4.11785e-30
8.19072e-33
5.59957e-33
1.75465e-34
1.66337e-36
4.96679e-39
0
-5.82401e-40
-1.70949e-37
-5.19559e-33
-1.88208e-25
-3.63005e-26
-2.61862e-28
-2.38817e-30
-2.28992e-31
-9.80216e-32
2.64312e-33
1.6016e-32
3.09598e-32
3.20173e-32
1.73988e-32
3.39527e-33
-5.06979e-30
-2.43724e-31
-4.48547e-34
1.42747e-35
3.38626e-37
2.36397e-39
2.2501e-42
-1.63668e-41
-4.22127e-41
-7.29734e-39
-1.59003e-34
0.999561
0.999401
0.999262
0.998765
0.468235
0.49304
0.384865
0.314832
0.167971
0.689342
0.448586
0.908718
0.765449
0.0851753
0.0447539
0.026804
0.00626327
0.000435138
0.000348164
0.000353129
0.633473
0.00998989
0.000349541
0.000352682
0.441528
0.524344
0.0432113
0.00036296
0.010501
0.480496
0.479956
0.466918
0.000160303
0.000355384
0.00418171
0.310666
0.000103563
0.000105449
7.36493e-05
5.92199e-05
0.000182884
0.0407075
0.0107103
6.26351e-05
0.0834394
0.0834537
0.0833878
0.0833868
0.012349
0.0834507
0.0831461
0.0826517
0.0825276
0.0830407
0.0753555
6.78458e-06
0.0818028
0.0599242
2.84127e-06
5.0444e-06
0.0533155
1.33876e-06
6.97548e-07
5.56645e-05
5.44347e-06
1.23353e-05
1.0766e-09
8.56943e-10
9.28723e-06
2.99495e-06
2.58939e-08
1.06893e-09
1.70213e-06
2.36988e-10
7.96168e-08
1.17866e-09
1.20562e-10
3.50304e-10
1.73405e-10
1.5634e-10
5.30996e-09
1.27498e-09
4.61129e-10
2.1049e-10
7.0227e-09
4.4137e-10
3.4916e-10
1.73274e-10
4.53807e-10
2.58232e-10
1.52001e-10
7.26376e-11
1.58292e-10
1.60962e-10
6.73396e-11
1.35841e-11
6.84281e-11
2.77653e-11
5.30891e-12
5.86275e-13
1.5883e-12
3.46547e-13
9.28378e-14
1.79276e-14
1.04437e-14
7.32232e-15
1.36089e-15
1.60229e-16
4.76768e-17
6.20568e-17
1.03287e-17
1.01204e-18
4.08102e-19
3.69346e-19
4.5764e-20
3.53637e-21
2.83505e-21
9.54261e-22
1.15546e-22
7.34947e-24
1.26045e-23
1.93381e-24
1.1087e-25
6.09137e-27
3.26336e-26
1.5155e-27
2.61842e-29
2.66928e-30
5.3642e-29
8.20346e-31
-3.33134e-31
0
-1.42834e-32
-1.2532e-30
-1.03482e-29
-4.19172e-33
-1.20136e-30
-5.2804e-30
-4.21634e-29
2.4651e-26
-3.08365e-30
-1.31357e-29
-1.5463e-28
4.06904e-22
-5.52199e-30
-2.49021e-29
-4.94224e-28
3.67573e-21
-6.65479e-30
-3.82843e-29
-1.23115e-27
4.47441e-21
-5.00572e-30
-5.10203e-29
-2.06689e-27
5.46419e-22
-2.11221e-30
-5.1007e-29
-1.88632e-27
1.43564e-20
-4.31087e-31
-2.45057e-29
-6.00141e-28
3.09349e-20
-2.32011e-32
-2.06451e-30
-4.25866e-30
-8.06536e-28
0.997337
0.975645
0.659365
0.0389856
0.189567
0.255426
0.00205978
0.0724024
0.997446
0.907048
0.339316
0.599847
0.0353991
0.391596
0.0177267
0.24958
0.868983
0.887367
0.503746
0.194247
0.0464737
0.0367046
0.322873
0.822575
0.765698
0.727456
0.818816
0.993634
0.614757
0.718864
0.204364
0.0382971
0.611766
0.00269427
0.376109
0.619804
0.000728573
0.000693535
0.922496
0.92472
0.92472
0.547598
0.0296484
0.419118
0.869882
0.799138
0.601253
0.634744
0.0234326
0.0269072
0.65501
0.335271
0.0015079
0.0154336
0.509874
0.00083458
0.00344757
0.0026051
0.722447
0.917253
0.365942
0.0284152
0.0291699
0.141459
0.531495
0.327668
0.0173739
0.0174147
0.0879388
0.964031
0.0029563
0.00151677
0.124419
0.295957
0.55625
0.00430841
0.000348995
0.000437007
0.191558
0.873198
0.789889
0.754757
0.532408
0.0307642
0.0199556
0.0173739
0.306341
0.981048
0.981297
0.0015981
0.00144859
0.00426704
0.446364
0.827017
0.790462
0.000352453
0.000348538
0.000352627
0.00394655
0.0124655
0.00838158
0.00911348
0.0179043
0.165974
0.958053
0.981414
0.981928
0.981436
0.682633
0.0144837
0.368937
0.810464
0.140776
0.408853
0.000352441
0.000352275
0.00035146
0.000353932
0.000426773
0.00124222
0.00596751
0.326389
0.966182
0.972313
0.969396
0.977444
0.978289
0.956964
0.917823
0.739121
0.083035
0.000120341
0.238453
0.0874687
0.000355869
0.000358804
0.000402954
0.000788105
0.00416087
0.485118
0.904008
0.87171
0.0697467
5.46867e-05
5.97307e-05
0.00344811
6.61914e-05
0.000104885
9.94134e-06
9.22931e-06
1.88446e-05
0.100894
0.477582
0.494298
0.0201108
0.00047312
0.00162214
0.428506
0.461911
8.36848e-05
8.34142e-05
5.47878e-05
5.46867e-05
7.73229e-05
0.000121352
1.0166e-05
0.00505585
0.00474478
5.76819e-06
2.09616e-05
0.0899313
6.75511e-05
0.00377664
0.143003
0.38397
0.135505
0.000958715
7.82354e-05
7.63721e-05
0.00449739
0.00231571
5.64411e-05
0.000173282
0.000406209
5.37892e-08
1.39826e-07
1.00428e-05
2.82947e-06
1.6025e-05
0.000191874
3.41606e-05
9.02635e-05
0.00833316
0.00641004
0.00297434
0.000533769
8.47245e-05
0.00134236
0.00449739
0.00450881
0.00190615
4.01254e-05
0.000296858
4.26034e-08
2.23335e-07
2.26452e-07
3.26782e-05
0.00142934
0.00266296
1.87118e-05
1.75674e-05
1.94119e-05
0.00602261
0.000201335
0.000178911
0.00295296
0.004506
0.00335844
0.00340002
0.00771817
5.79085e-05
2.09224e-05
3.07319e-08
6.38981e-07
1.06616e-06
1.51526e-05
0.0136374
0.000782206
1.67115e-05
1.66982e-05
1.75848e-05
2.08303e-05
0.00077346
0.00406809
0.00441328
0.00434671
0.00685763
0.007581
0.00773013
0.000815974
3.53251e-05
3.07313e-08
3.07313e-08
3.2607e-08
4.4404e-08
0.0136269
0.000766986
1.05091e-05
1.66982e-05
1.80635e-05
4.81303e-05
3.05141e-06
1.26562e-07
2.859e-08
2.82736e-08
3.16046e-08
1.53016e-06
0.00676715
0.00536892
0.000265327
3.57958e-08
3.07749e-08
4.57166e-08
4.44089e-08
0.0133832
0.000928838
1.11197e-05
6.32006e-05
0.000228669
0.000352459
0.000297539
7.84485e-06
3.094e-08
2.81949e-08
2.81949e-08
4.26601e-08
6.88761e-05
0.00781482
0.000456497
2.28054e-06
1.3736e-05
9.1498e-07
4.94825e-08
0.000875008
0.0139809
0.000347237
0.000347237
0.000334838
0.000111215
0.000115756
1.84207e-10
4.45119e-08
4.53578e-08
2.85865e-08
9.03147e-07
0.000185724
0.00704316
0.000698128
4.30882e-06
1.69935e-05
1.85831e-05
1.34891e-07
1.83472e-07
0.019601
7.96034e-10
7.96034e-10
6.6702e-10
2.12748e-10
1.7987e-10
1.80326e-10
3.50005e-08
1.44405e-09
2.9765e-06
1.86351e-06
0.000624872
0.000181828
0.00469632
6.91865e-06
5.96252e-06
4.63825e-05
3.30944e-07
3.41231e-07
3.23692e-05
1.77351e-09
1.24795e-09
4.65076e-09
3.76366e-09
1.40797e-10
1.79634e-10
1.29563e-08
1.15343e-09
3.37952e-06
1.32633e-07
0.000629767
3.49814e-05
0.00549661
0.00537544
0.000485041
1.18179e-06
2.29949e-07
0.00140644
6.04786e-05
2.47819e-09
1.24314e-09
4.63604e-10
8.69013e-11
3.77858e-11
9.31361e-11
4.86649e-11
5.18089e-08
3.15304e-09
6.07115e-09
0.000654817
3.4652e-05
9.18803e-06
0.00615697
0.000655713
4.4603e-07
2.28222e-07
0.00349927
0.000370358
2.75234e-10
2.59957e-10
5.37234e-11
4.60289e-11
6.26363e-12
2.19485e-11
4.94709e-11
8.87053e-08
1.75519e-09
7.2991e-06
0.000654817
1.91545e-05
9.17457e-06
9.27414e-06
0.00520778
1.60868e-06
2.55101e-07
0.00349927
0.000136429
9.38808e-11
1.87584e-11
8.09101e-12
4.51136e-12
5.98781e-13
6.65382e-12
4.8282e-10
4.37143e-10
8.7907e-10
0.000616448
0.000299024
0.000206165
3.93004e-05
1.27374e-05
0.00465577
4.43942e-06
4.20309e-07
0.00172005
0.000140946
5.99185e-11
5.40574e-12
1.08039e-12
3.70295e-13
3.23931e-14
1.26891e-15
8.27733e-10
4.14353e-10
1.3237e-09
3.75606e-09
9.56455e-09
0.000209119
4.8762e-05
0.00107439
0.000303166
0.000790557
0.000353756
0.00239996
0.00161775
1.65442e-11
5.57996e-13
7.65398e-14
2.12635e-14
9.6412e-16
5.5145e-15
6.99886e-11
5.44503e-12
1.43922e-07
1.73674e-09
3.96681e-05
0.000146253
0.000133997
0.00155214
0.000177794
0.000651977
6.18785e-06
0.0010362
0.00331629
1.55254e-12
1.48896e-14
3.34314e-15
6.83241e-16
8.74351e-17
1.10957e-15
1.08504e-12
1.28532e-09
3.13236e-08
6.75261e-11
0.000214837
0.000219775
1.08068e-06
0.00154793
0.000193032
6.09541e-06
5.9476e-06
0.00466659
0.00271115
5.36787e-14
2.61077e-16
7.16192e-17
2.65365e-17
3.03716e-16
3.51037e-14
1.19466e-11
3.16252e-10
1.16449e-10
6.7526e-11
0.000218859
0.000105707
5.86697e-07
0.000697557
0.000188324
6.87309e-06
0.00364319
0.00476602
0.0158685
1.11014e-15
1.40213e-18
8.32625e-19
1.86687e-16
8.07889e-15
1.73319e-12
1.0345e-10
9.13795e-10
3.01991e-10
3.33059e-10
0.000211408
1.37043e-06
2.92465e-07
0.00027055
0.000686828
0.0037526
0.00446385
3.51255e-07
0.00580192
8.62382e-18
6.97627e-21
3.24308e-18
5.10982e-15
5.11883e-14
2.65174e-11
6.42235e-10
1.10659e-09
8.02709e-10
4.19402e-08
2.148e-07
2.14773e-07
2.45674e-07
0.000329867
0.00121312
0.00553044
1.26817e-06
1.28389e-08
0.00123349
4.52383e-20
3.13055e-22
4.51959e-17
1.69277e-14
2.01003e-13
4.33203e-11
5.64387e-10
1.25738e-09
1.67127e-07
4.77778e-06
1.72448e-06
2.48401e-07
3.30711e-07
0.000630863
0.00343186
0.00144618
1.62446e-08
1.28388e-08
0.000159486
1.08802e-22
2.3609e-22
1.06561e-16
1.75233e-14
3.65576e-13
8.94358e-11
7.91437e-09
9.43054e-09
4.68961e-06
4.77496e-06
4.41516e-07
2.88317e-05
9.23934e-06
0.000625525
0.00029088
0.00489221
0.00371983
2.78293e-08
0.000419184
2.00966e-25
1.93556e-21
1.35248e-16
4.19442e-15
-2.62991e-12
5.31711e-09
2.65271e-06
5.51599e-06
2.31894e-06
2.85732e-07
1.41546e-05
4.40299e-05
4.20556e-06
0.000645586
0.000169689
0.00365215
1.04844e-05
1.08541e-06
0.000690187
1.41087e-26
1.15237e-19
3.91713e-16
3.53848e-16
-4.6571e-11
1.12914e-05
4.78967e-05
1.00156e-05
1.35918e-07
5.69208e-07
2.27224e-05
3.33509e-06
3.33509e-06
0.000740905
0.000437058
0.000253684
0.000426634
0.0003181
2.22259e-05
6.46301e-25
1.0939e-17
1.73602e-14
-2.03741e-14
5.77743e-10
4.77585e-05
4.33134e-05
7.07952e-08
8.85036e-08
2.90843e-05
4.0303e-06
3.45564e-06
0.000369273
0.000203006
0.000143717
0.000140534
0.00245312
0.00266921
6.72854e-05
2.06326e-24
1.22774e-15
1.13182e-12
1.17688e-13
4.53789e-05
4.57765e-05
6.12005e-08
6.12051e-08
3.84662e-06
0.000135326
0.000175468
2.23761e-05
0.00121105
0.000744043
0.000450135
0.000392142
0.00262788
0.000787739
1.2609e-07
2.25481e-25
2.65482e-13
1.72374e-11
2.03738e-11
3.04047e-06
5.7572e-08
6.05356e-08
6.38216e-08
3.93266e-06
0.00387854
0.00399072
0.00400301
0.00399677
0.00160884
0.000459488
0.00219546
0.00179359
5.30674e-09
4.64058e-08
4.86013e-24
2.24357e-11
3.89005e-11
1.31518e-07
2.07344e-08
7.50664e-08
7.59451e-08
1.41651e-05
1.53005e-08
1.53005e-08
2.54428e-07
0.00185329
0.000676446
0.0014285
0.00236451
0.000937905
3.07104e-12
1.78892e-12
2.18084e-05
1.25506e-22
1.67654e-10
1.24675e-09
6.70469e-09
7.54685e-09
0.000125917
7.37511e-06
0.00014884
1.34116e-08
1.34116e-08
4.99702e-06
0.000554048
2.48789e-10
1.59052e-10
8.14901e-14
1.89537e-12
3.29687e-11
-1.54048e-15
6.60769e-05
5.14081e-22
2.72251e-10
6.35697e-10
6.43648e-09
2.81421e-05
0.000400817
0.000398757
2.08521e-08
1.36948e-08
3.57212e-08
0.000178117
0.000589722
1.27932e-08
3.39552e-09
1.54612e-09
3.56075e-13
2.09395e-11
-8.49576e-15
-1.57982e-13
7.20137e-13
6.24778e-11
4.22485e-11
3.95389e-10
0.000210838
0.00039665
1.97927e-07
1.29145e-07
1.19627e-05
0.00012485
0.000277795
1.09884e-12
2.23948e-07
3.31986e-10
7.23398e-11
1.07281e-15
1.25263e-13
-4.93661e-15
-3.70957e-13
2.3293e-12
4.33921e-12
1.01259e-12
3.96277e-10
8.6318e-05
1.18576e-05
2.53452e-05
0.000102254
9.37481e-05
5.26041e-05
3.24915e-24
-1.18233e-35
1.84995e-17
1.85159e-12
4.8409e-14
8.66932e-17
3.17886e-16
-4.31903e-15
-1.44968e-13
7.04069e-13
4.11228e-13
1.16008e-13
1.98387e-10
2.25434e-05
0.000128137
4.45515e-05
0
-2.14707e-21
-1.91272e-19
-8.16655e-18
-1.28199e-19
1.30259e-19
5.06821e-16
2.35714e-16
5.01557e-18
2.60325e-18
-1.09397e-15
-2.04975e-14
1.14493e-16
2.01429e-16
5.82336e-15
1.39906e-10
6.4188e-05
0.000126748
-7.96946e-26
-1.35299e-24
-8.4862e-24
-2.15426e-24
-2.99432e-23
-3.67649e-21
-3.05267e-21
-5.27117e-24
-2.30564e-27
-4.10609e-24
-7.1114e-21
-2.95054e-17
-4.61382e-16
-1.70297e-25
-2.31398e-38
-4.69809e-33
-5.8377e-13
4.93542e-06
0.000196167
-1.1259e-26
-9.09126e-29
-1.84174e-27
-1.46159e-26
-7.13498e-27
-7.14961e-28
-1.24012e-28
-8.64217e-33
-1.20694e-29
-4.01107e-26
-2.75024e-23
-2.43155e-21
-1.8132e-22
1
1
1
1
1
1
1
1
1
1
1
1
1
0.999995
0.956555
0.966018
0.999988
0.997531
0.993024
0.999892
0.999922
0.99994
0.999999
1
1
1
1
1
1
1
1
1
1
1
1
1
0.999954
0.944582
0.976261
0.999994
0.999967
0.999414
0.877282
0.891256
0.999998
0.999999
1
1
1
1
1
1
1
1
1
1
1
1
1
1
0.999658
0.995686
0.999967
0.999992
0.92485
0.846496
0.992133
0.999559
0.999999
1
1
1
1
1
1
1
1
1
1
1
1
1
1
1
1
1
1
0.980618
0.940738
1
1
0.999999
1
1
1
1
1
1
1
1
1
1
1
1
1
1
1
1
1
1
1
1
1
1
0.999998
1
1
1
1
1
0.999992
1
1
1
1
1
1
1
1
1
1
1
1
1
1
1
1
0.999998
1
1
1
1
0.949706
1
1
1
1
1
1
1
1
1
1
1
1
1
1
1
1
1
1
1
1
1
0.955442
0.97946
1
1
1
1
1
1
1
1
1
1
1
1
1
1
1
1
1
1
0.934568
0.962493
0.965212
0.990872
0.996139
0.998091
0.998098
0.986947
0.977525
0.996819
0.986826
0.976225
0.975773
0.93268
0.919252
0.917349
0.836238
0.853127
0.880835
0.94644
0.153429
6.20643e-05
6.60027e-05
0.0287826
0.759751
0.998104
0.998104
0.998106
0.990955
0.994317
0.931492
0.060206
0.463988
0.822022
0.744203
0.921953
0.821258
0.94984
0.493397
8.3102e-05
6.20644e-05
6.28439e-05
0.000100181
0.900304
0.998093
0.998107
0.998107
0.979213
0.980852
0.0188512
0.00421854
0.0232712
0.679737
0.618179
0.713564
0.35296
0.861788
0.531569
0.175731
0.0133462
7.85115e-05
0.571277
0.997703
0.998104
0.998107
0.998107
0.997608
0.665286
0.00445233
0.004464
0.00880898
0.955847
0.695811
0.735101
0.347461
0.421564
0.924499
0.635289
0.0177266
0.410021
0.979358
0.950178
0.995366
0.998106
0.998099
0.994769
0.00845719
0.0063658
0.130285
0.74475
0.962563
0.0959384
0.0465454
0.609903
0.779118
0.365507
0.00651354
0.196801
0.960325
0.969833
0.0189273
0.328988
0.998005
0.998013
0.81926
0.014944
0.567258
0.96125
0.962712
0.962712
0.0761329
0.0465458
0.582978
0.815041
0.0149896
0.120166
0.965506
0.958768
0.0388901
0.00204947
0.0384028
0.997705
0.997719
0.372235
0.0164837
0.906345
0.950757
0.959591
0.807886
0.0451582
0.0451582
0.307273
0.989126
0.533415
0.97507
0.971042
0.117096
0.00237537
0.00187594
0.0173316
0.997657
0.997371
0.098565
0.644784
0.195389
0.311138
0.446783
0.0901353
0.362257
0.102707
0.985811
0.989839
0.655677
0.363643
0.542762
0.760986
0.987489
1
1
1
1
1
1
1
1
1
1
1
1
1
1
0.999998
0.999956
0.9999
0.999995
4.11497e-05
3.7142e-06
5.41611e-06
8.11799e-06
5.53561e-06
0.108071
0.506913
0.91544
1
1
1
1
1
1
1
1
1
1
0.999993
0.998449
0.592369
0.260668
0.398997
5.70785e-07
1.34564e-08
8.96124e-09
2.7057e-07
1.62874e-06
1.61519e-07
2.472e-08
7.49814e-08
0.0371171
0.132277
0.373644
0.556173
0.719673
0.851024
0.963756
1
1
0.999259
0.985998
0.320455
0.371536
0.158436
0.116075
1.00431e-08
9.89716e-11
5.51862e-11
2.09018e-09
1.28476e-05
1.92338e-05
2.3812e-08
2.60966e-08
3.10998e-08
4.33897e-08
3.28378e-07
1.28996e-06
1.96715e-05
0.000249036
0.00434952
0.819462
0.991295
0.997655
0.550288
0.715733
0.734807
0.522476
0.649855
1.22671e-10
1.26486e-11
1.3003e-11
4.41224e-11
1.32622e-08
2.3673e-05
1.36226e-05
5.26457e-07
2.07613e-06
9.49769e-06
9.24667e-06
1.65112e-07
4.59247e-06
2.44195e-05
0.000264234
0.00374075
0.81462
0.298436
0.0545042
0.0198294
0.566274
0.643937
0.0421084
7.70145e-09
5.09498e-05
9.47235e-11
6.62742e-13
1.9909e-10
1.84924e-08
1.03762e-07
6.25674e-08
8.53794e-08
3.37247e-06
2.23841e-06
3.82576e-08
2.32686e-07
7.30905e-06
0.000254662
0.0258414
0.121123
0.00268944
0.00204181
0.00312992
0.0296421
0.644336
0.644336
0.000105183
0.00010615
2.19348e-06
1.31066e-14
1.32206e-11
2.30902e-10
4.75883e-09
1.23892e-08
9.44657e-07
1.76442e-07
1.43532e-08
2.01236e-08
1.60278e-07
1.74853e-06
5.12256e-05
0.00589633
0.0433306
0.00190085
0.00189667
0.00204626
0.00518663
0.396556
0.410057
7.35937e-06
3.95514e-06
2.84408e-08
6.63765e-15
5.19577e-13
6.03262e-12
2.62139e-08
1.12501e-07
9.44657e-07
1.12356e-08
1.23252e-08
3.12101e-08
1.03851e-06
3.80592e-05
0.00798501
0.0530391
0.0530445
0.00187641
0.00187641
0.00201431
0.093548
0.391004
0.00305192
9.34184e-09
5.02434e-09
1.10991e-10
4.58047e-12
8.39041e-14
3.86787e-12
3.87723e-08
8.33479e-09
2.17e-09
1.21779e-08
1.57492e-08
7.18514e-08
3.67281e-06
0.000164239
0.0453379
0.0525842
0.0149425
0.00187997
0.00189297
0.00725014
0.446478
0.455845
0.000144879
2.0242e-10
1.26813e-10
1.34322e-11
3.74835e-12
1.11832e-13
1.66039e-10
5.89933e-10
1.27725e-09
1.34379e-09
7.47928e-09
2.06211e-09
2.3266e-08
1.16287e-06
4.0404e-05
0.00843057
0.0490258
0.015174
0.00504298
0.0051391
0.00314048
0.41917
0.45326
0.000106175
1.99687e-11
1.15185e-11
6.28592e-13
2.34293e-13
1.23208e-13
2.17989e-11
6.51217e-10
1.37532e-09
1.01964e-09
6.13614e-10
4.22769e-10
4.55723e-09
2.6859e-07
1.37659e-05
0.000495045
0.0461498
0.055376
0.00352431
0.000804197
0.000425814
0.019848
0.153864
0.000125421
7.64006e-13
3.48347e-13
1.35189e-14
9.45074e-16
1.90798e-14
2.24569e-11
5.36911e-10
7.06066e-10
1.82837e-10
7.72202e-11
1.1885e-10
9.22898e-10
5.0001e-08
3.17687e-06
6.26747e-05
0.000346248
0.0442635
0.0522867
0.000253202
0.000265249
0.00196525
0.0383288
0.0639386
1.55143e-14
7.63847e-15
-2.41698e-32
-1.42523e-15
5.60723e-14
2.36023e-11
1.13785e-10
4.97239e-11
8.68623e-12
6.01425e-12
2.87983e-11
1.75305e-10
5.14142e-09
2.00389e-07
3.40272e-06
3.18092e-05
0.0152056
0.0719349
0.000229875