/*--------------------------------*- C++ -*----------------------------------*\
| =========                 |                                                 |
| \\      /  F ield         | OpenFOAM: The Open Source CFD Toolbox           |
|  \\    /   O peration     | Version:  v1912                                 |
|   \\  /    A nd           | Website:  www.openfoam.com                      |
|    \\/     M anipulation  |                                                 |
\*---------------------------------------------------------------------------*/
FoamFile
{
    version     2.0;
    format      ascii;
    class       volScalarField;
    location    "0.75";
    object      p;
}
// * * * * * * * * * * * * * * * * * * * * * * * * * * * * * * * * * * * * * //

dimensions      [1 -1 -2 0 0 0 0];


internalField   nonuniform List<scalar> 
9072
(
520.821
550.453
554.259
562.092
579.937
606.047
633.662
663.042
693.297
723.938
755.373
788.282
823.23
860.207
895.66
923.597
964.94
1003.92
1000.06
1020.34
1042.01
1091.05
1100.99
460.071
490.285
494.392
500.967
519.09
546.695
574.588
603.864
634.042
664.685
696.097
728.955
763.912
800.942
839.385
866.301
898.436
942.673
952.339
952.279
966.509
1021.1
1034.79
397.664
428.75
432.602
435.226
453.077
486.777
515.13
544.258
574.326
604.938
636.265
668.986
703.751
740.667
778.986
808.588
841.769
889.157
913.263
897.928
908.765
951.311
964.02
334.493
365.935
368.392
361.549
378.643
426.826
456.269
484.526
514.262
544.716
575.89
608.433
643.042
679.983
718.624
754.418
791.723
834.616
862.194
856.467
861.284
885.234
893.808
271.412
301.566
301.998
288.124
309.083
368.977
397.761
424.597
453.879
484.116
515.064
547.346
581.774
618.902
658.556
698.697
739.971
781.67
811.761
816.19
814.252
821.487
824.792
209.256
235.332
234.608
223.592
249.503
310.445
337.985
364.103
393.178
423.205
453.84
485.736
519.888
557.245
598.247
642.05
687.53
731.166
763.173
771.609
763.574
758.21
756.202
147.682
167.417
166.348
166.312
196.261
243.542
275.139
302.699
332.169
362.054
392.269
423.6
457.281
494.767
537.242
584.74
635.193
682.894
717.198
725.619
710.774
693.877
686.798
85.3183
97.5744
95.9144
111.183
141.194
174.445
209.936
240.572
270.976
300.764
330.411
360.926
393.814
431.166
475.053
526.543
583.093
636.919
674.68
681.082
656.237
626.147
615.076
377.759
355.668
294.575
256.903
265.773
335.904
823.327
1026.02
1095.65
1155.6
1108.3
1042.77
1035.46
800.271
1188.42
998.033
872.575
720.311
820.582
400.68
259.824
223.267
223.194
223.098
235.975
757.062
965.604
1048.27
1067.12
1052.2
941.334
708.495
702.107
1025.93
882.906
868.731
613.306
690.787
367.754
228.906
222.775
223.138
222.925
223.287
636.38
886.95
1047.91
1017.88
988.182
714.704
689.45
695.186
813.287
773.353
723.003
518.684
510.584
308.91
225.346
221.938
223.046
222.824
190.5
443.347
776.682
1059.46
1026.97
835.876
674.46
687.587
694.217
718.518
678.703
454.783
469.055
614.93
263.712
238.184
222.714
222.912
183.772
98.2488
141.897
580.927
1044.67
1035.39
656.322
666.076
684.411
685.345
653.393
515.329
394.633
405.456
697.151
227.158
223.141
222.113
198.288
92.3308
-0.755089
5.58141
268.011
963.373
980.522
605.93
656.323
668.341
677.995
496.042
433.229
366.769
360.155
704.222
223.208
223.391
206.692
130.269
-0.912955
-13.0808
-3.03894
85.48
806.946
792.909
578.564
644.784
760.519
749.147
364.499
393.381
340.116
329.427
670.122
183.439
206.676
154.318
65.4734
-25.3368
-15.089
-4.95277
-1.17595
639.007
604.899
544.394
772.826
743.651
785.315
327.941
386.877
324.467
342.631
603.646
18.086
22.3994
21.9257
33.7495
52.413
89.2389
126.324
160.943
192.656
222.149
250.771
279.83
311.1
347.669
392.962
450.088
516.467
581.416
626.07
628.444
587.118
537.328
513.357
9.79516
9.84516
9.68098
9.47187
9.63038
9.86671
17.5363
38.2491
65.0291
93.4938
118.875
143.53
169.199
201.187
245.441
313.122
404.155
499.726
567.613
549.536
428.224
348.699
327.982
9.36829
9.45063
9.32032
9.26935
9.29533
9.29634
9.31859
9.12263
8.78273
11.0122
17.0615
25.3064
32.7043
46.7127
71.1348
146.083
274.481
421.689
554.506
527.445
395.257
336.189
315.935
8.91409
9.02984
8.97193
9.00193
9.03781
9.06614
9.01319
8.84896
8.69694
8.78697
8.98109
8.8983
8.46257
8.34863
9.05798
17.4088
136.671
307.841
642.543
418.623
293.364
304.229
183.74
8.56972
8.61438
8.6057
8.70598
8.74988
8.75166
8.7136
8.62103
8.56076
8.64009
8.73654
8.72633
8.48558
8.21839
8.25396
3.64957
-44.5109
50.8013
25.5191
4.27255
31.1475
125.78
92.8837
8.31774
8.36317
8.37806
8.4475
8.47654
8.47311
8.4522
8.42828
8.43173
8.4779
8.52741
8.53476
8.505
8.55561
9.26373
9.66209
46.2164
12.0972
-14.7154
-12.4445
-8.14114
10.9651
34.0908
8.01786
8.14031
8.15658
8.19341
8.20758
8.20543
8.1999
8.2058
8.23274
8.27802
8.32786
8.38149
8.49646
8.79304
9.36484
10.6791
15.9943
-12.3835
-21.5962
-18.9509
-13.9697
-9.36229
13.6947
7.73203
7.90278
7.91315
7.92959
7.934
7.93231
7.93226
7.94483
7.97556
8.01909
8.06968
8.13053
8.22772
8.37487
8.80278
8.97245
-1.65969
-16.5097
-20.2593
-17.3191
-10.9605
-14.2469
26.7175
7.49129
7.64378
7.64849
7.65147
7.6482
7.6441
7.64335
7.65245
7.67609
7.71009
7.74612
7.77505
7.76804
7.57242
7.16022
-0.127273
-9.44902
-7.98058
-10.0573
-13.6616
-13.7839
12.9759
8.4097
7.21714
7.36058
7.36152
7.35743
7.34841
7.33901
7.33263
7.33312
7.34427
7.36366
7.38155
7.38471
7.35135
7.22844
7.18287
0.169218
-6.11325
-1.87202
-5.27072
-7.18941
-5.71796
-3.98698
-2.79738
6.93937
7.07557
7.0697
7.05745
7.03977
7.02069
7.00359
6.99127
6.98724
6.99126
6.9952
6.98961
6.96959
6.95098
7.00652
5.8927
6.92896
-0.198091
-8.28285
-8.60852
-8.66968
-15.2821
-6.17376
6.66656
6.79588
6.78193
6.75885
6.72808
6.69369
6.65989
6.63016
6.60845
6.5964
6.58832
6.57293
6.53638
6.45037
6.21336
5.75789
6.26529
22.9295
-9.10316
-9.76491
-9.16267
-9.34823
-8.3848
6.40321
6.52374
6.50168
6.46613
6.41818
6.36196
6.30372
6.25011
6.20727
6.17902
6.1622
6.14479
6.10672
6.01196
5.78555
5.39136
5.65983
-4.4042
-10.8361
-10.5024
-8.766
-8.06865
-8.41362
6.1527
6.2631
6.23342
6.18466
6.11588
6.03038
5.93709
5.8484
5.77684
5.73162
5.7142
5.71402
5.71043
5.67728
5.59733
5.52348
5.53234
-7.47868
-8.23822
-10.1822
-7.88728
-7.50478
-7.80043
5.91664
6.01782
5.98322
5.92269
5.83056
5.70711
5.56274
5.41791
5.30011
5.23227
5.22448
5.26843
5.33459
5.38454
5.38384
5.30044
4.98813
1.5155
-7.415
-7.24496
-7.48697
-7.26827
-7.54235
5.69305
5.79019
5.75752
5.69172
5.57745
5.40557
5.18395
4.94186
4.74213
4.634
4.64742
4.77973
4.96959
5.14204
5.24528
5.24706
5.04198
4.69429
-1.63569
-6.93603
-7.10166
-7.05001
-7.81227
5.47151
5.57761
5.56036
5.50613
5.38076
5.15036
4.80683
4.3946
4.02635
3.83796
3.87414
4.18311
4.59254
4.95972
5.26399
5.38873
5.09984
4.9691
4.742
-2.28285
-7.00092
-7.69808
-6.9347
5.22513
5.36608
5.38781
5.3801
5.2766
4.98693
4.45052
3.70115
2.95826
2.57698
2.58316
3.30391
4.1072
4.83401
5.5103
5.71757
4.9811
5.10119
4.7472
-1.43361
-6.01768
-8.89179
-5.7555
4.90283
5.12017
5.21433
5.31245
5.30535
4.98504
4.12959
2.60382
1.0801
-0.997089
-0.454029
1.80993
3.08458
4.2527
5.47899
5.52249
-0.878552
1.49654
-1.72564
-3.96959
-4.80205
-5.85716
-6.04181
4.42893
4.77179
4.96775
5.2454
5.46715
5.19952
3.99926
-0.612274
-5.25077
-8.28542
-6.24548
-2.14957
-0.324546
0.462542
0.298302
-5.81105
-7.60554
-6.64287
-7.47842
-8.43576
-7.60002
-7.02764
-6.58251
3.72616
4.21985
4.50169
4.9741
5.56788
5.22635
1.53965
-4.18311
-4.99402
-6.57414
-6.8236
-5.15519
-6.48562
-12.3448
-9.58251
-7.87225
-8.42598
-8.67492
-8.8023
-8.81025
-8.3611
-7.67348
-7.03259
2.77474
3.37102
3.614
4.05741
4.55406
2.2003
-2.52711
-5.27569
-5.06277
-5.53345
-5.09187
-4.58008
-8.0484
-12.732
-11.4511
-9.36917
-8.94826
-8.85567
-8.9523
-9.03127
-8.63275
-7.93721
-7.18734
1.67295
2.24224
2.23151
2.034
0.188114
-5.22218
-9.20138
-4.93915
-4.9761
-4.46999
-2.86606
-2.32218
-6.29657
-10.7255
-10.3478
-9.46778
-9.06765
-8.86643
-8.87597
-8.81514
-8.46509
-7.82688
-7.10133
0.601841
1.03719
0.759949
0.0122769
-2.14408
-6.35651
-8.67491
-5.9619
-5.39
-4.1778
-3.07438
-1.43908
-5.47526
-8.30601
-9.21046
-9.89946
-9.26561
-8.95164
-8.87057
-8.63246
-8.16104
-7.53621
-6.92152
-0.313175
-0.018006
-0.38542
-1.16433
-2.70624
-5.26654
-6.47954
-5.80679
-5.18707
-4.20212
-3.49034
-3.5365
-6.57022
-7.57834
-9.03427
-9.96467
-9.18727
-8.912
-8.75295
-8.31828
-7.75403
-7.20731
-6.71948
-1.06238
-0.85115
-1.18931
-1.80538
-2.75326
-3.92583
-4.75537
-4.86547
-4.59667
-4.10964
-3.705
-3.65033
-5.60734
-6.954
-7.70969
-8.37455
-8.56489
-8.58663
-8.30434
-7.79478
-7.30972
-6.88473
-6.50324
-1.66185
-1.49417
-1.76692
-2.22088
-2.84085
-3.53193
-4.07365
-4.30984
-4.30704
-4.17652
-4.07801
-4.28509
-6.1157
-8.10249
-7.83135
-7.98829
-8.16805
-8.00723
-7.62704
-7.23542
-6.89011
-6.57464
-6.28203
-2.14556
-2.00135
-2.20939
-2.5387
-2.96157
-3.4163
-3.80757
-4.06457
-4.19615
-4.26769
-4.39477
-4.80732
-5.96712
-7.91069
-8.21855
-7.77035
-7.51948
-7.24161
-6.98531
-6.74474
-6.51215
-6.28631
-6.06964
-2.54584
-2.41585
-2.5714
-2.81142
-3.11202
-3.43587
-3.7353
-3.97476
-4.15398
-4.30795
-4.50282
-4.84184
-5.48777
-6.34614
-6.7442
-6.73744
-6.67677
-6.58264
-6.46574
-6.33051
-6.18334
-6.03027
-5.87652
-2.8877
-2.76712
-2.88342
-3.06013
-3.28032
-3.5213
-3.75644
-3.96638
-4.14889
-4.32094
-4.51527
-4.77379
-5.12878
-5.5456
-5.86363
-6.01776
-6.08465
-6.09166
-6.0571
-5.99346
-5.90961
-5.81287
-5.70934
-3.18976
-3.07477
-3.16212
-3.29385
-3.45845
-3.64189
-3.82821
-4.00586
-4.17234
-4.33466
-4.50769
-4.70922
-4.94824
-5.20608
-5.43135
-5.58948
-5.68778
-5.73779
-5.74941
-5.73152
-5.69174
-5.63654
-5.57136
-3.46342
-3.35254
-3.41848
-3.51785
-3.64273
-3.78404
-3.93189
-4.07911
-4.22305
-4.36577
-4.51331
-4.673
-4.84726
-5.02756
-5.19409
-5.32953
-5.42884
-5.49365
-5.52818
-5.53739
-5.52653
-5.50043
-5.46328
-3.71603
-3.60893
-3.65962
-3.73539
-3.83116
-3.94111
-4.05878
-4.17936
-4.30013
-4.42093
-4.54382
-4.67165
-4.80508
-4.93998
-5.06769
-5.17895
-5.26839
-5.33468
-5.37825
-5.40203
-5.4089
-5.40206
-5.38449
-3.954
-3.84974
-3.88952
-3.94762
-4.02144
-4.10765
-4.2016
-4.29949
-4.39882
-4.49867
-4.59954
-4.70241
-4.80727
-4.91193
-5.01202
-5.10244
-5.17933
-5.24073
-5.28618
-5.31652
-5.33326
-5.33833
-5.33371
-4.1822
-4.0798
-4.11122
-4.15568
-4.21263
-4.28028
-4.35497
-4.43356
-4.51397
-4.59526
-4.6773
-4.7602
-4.84361
-4.92617
-5.00548
-5.07868
-5.14325
-5.1975
-5.24058
-5.27249
-5.29382
-5.30556
-5.30898
-4.40394
-4.30273
-4.32738
-4.3614
-4.40527
-4.45787
-4.51642
-4.57856
-4.6427
-4.70795
-4.77388
-4.84022
-4.90651
-4.97183
-5.03479
-5.09372
-5.14699
-5.19334
-5.23193
-5.26243
-5.28493
-5.29986
-5.30792
-4.62221
-4.52142
-4.54015
-4.56602
-4.59947
-4.63965
-4.68461
-4.73276
-4.78292
-4.83427
-4.88626
-4.93849
-4.99051
-5.04171
-5.09123
-5.13803
-5.18109
-5.2195
-5.2526
-5.28003
-5.30169
-5.31766
-5.32823
-4.83897
-4.7376
-4.75079
-4.76983
-4.79463
-4.82453
-4.85817
-4.89446
-4.93256
-4.97179
-5.01161
-5.05163
-5.09147
-5.1307
-5.16877
-5.20504
-5.23886
-5.26965
-5.29694
-5.32047
-5.34012
-5.35585
-5.36763
-5.05378
-4.95123
-4.95969
-4.9729
-4.9904
-5.01172
-5.03589
-5.06214
-5.08986
-5.1185
-5.14767
-5.17703
-5.2063
-5.23516
-5.26329
-5.29027
-5.31574
-5.33933
-5.36078
-5.37996
-5.39688
-5.4115
-5.4236
-5.26489
-5.16132
-5.16665
-5.17522
-5.18664
-5.20076
-5.21693
-5.23462
-5.25339
-5.27285
-5.29271
-5.31275
-5.33277
-5.35257
-5.37194
-5.39066
-5.40851
-5.4253
-5.44094
-5.45545
-5.46898
-5.48169
-5.49346
-5.47221
-5.36784
-5.37166
-5.37673
-5.38323
-5.39136
-5.40075
-5.4111
-5.42214
-5.43364
-5.4454
-5.45729
-5.46921
-5.48103
-5.49264
-5.50393
-5.51479
-5.52515
-5.53499
-5.54443
-5.55384
-5.56383
-5.57462
-5.67965
-5.57261
-5.5756
-5.57764
-5.58012
-5.58329
-5.58697
-5.59106
-5.59545
-5.60004
-5.60475
-5.60952
-5.61432
-5.61909
-5.62379
-5.62838
-5.63283
-5.63709
-5.64118
-5.64521
-5.64961
-5.65563
-5.66482
487.706
459.589
428.454
372.466
334.251
346.255
344.635
325.263
305.509
293.008
283.52
249.882
81.0978
34.8778
31.6599
29.0471
33.2968
30.49
29.8814
29.6183
22.0746
29.2362
28.8654
28.7314
2.40465
8.10304
27.7172
27.9467
12.9067
4.42003
6.4354
13.3808
1.17634
-0.308945
-3.1123
4.03226
-1.67051
-1.80498
-2.21689
-2.57926
-1.7461
-2.26364
-2.75099
-3.31809
-8.13144
-6.46358
-7.50707
-5.99944
-8.30736
-7.92162
-7.48738
-6.56442
-8.5521
-5.73269
-3.21059
-3.1724
-6.41163
-4.02855
-3.60439
-3.49827
-4.11584
-4.10644
-4.00574
-3.87519
-4.77762
-4.62544
-4.44194
-4.26422
-5.2996
-5.09262
-4.87491
-4.67543
-5.73301
-5.50531
-5.27247
-5.05406
-6.15342
-5.87934
-5.61094
-5.36931
-6.44334
-6.12644
-5.8426
-5.59794
-6.55248
-6.24192
-5.97748
-5.74859
-6.53829
-6.2732
-6.04096
-5.83431
-6.46457
-6.24576
-6.0442
-5.86034
-6.35009
-6.16769
-5.99646
-5.83768
-6.20599
-6.05643
-5.91506
-5.78261
-6.04874
-5.92961
-5.81619
-5.70901
-5.89219
-5.80016
-5.71175
-5.62737
-5.74635
-5.67752
-5.61053
-5.54585
-5.61773
-5.56803
-5.51884
-5.47073
-5.50992
-5.47548
-5.44078
-5.40635
-5.42464
-5.40205
-5.37883
-5.3553
-5.36253
-5.34882
-5.33424
-5.31894
-5.32335
-5.31592
-5.30745
-5.29809
-5.30619
-5.30292
-5.2986
-5.2934
-5.30986
-5.30929
-5.30774
-5.30533
-5.33314
-5.33433
-5.33459
-5.33397
-5.37443
-5.37682
-5.37833
-5.37893
-5.43163
-5.43495
-5.43745
-5.43909
-5.5023
-5.50636
-5.50974
-5.51237
-5.58383
-5.58841
-5.59249
-5.59597
-5.67388
-5.67872
-5.68326
-5.68734
233.325
162.489
99.8164
68.1755
-47.0758
-30.7394
-4.59474
10.0038
492.049
587.232
521.442
819.229
717.398
642.281
287.493
347.176
376.224
466.932
463.632
252.829
118.697
84.0988
55.7773
-4.96454
-213.534
-69.648
62.1635
498.239
759.529
593.502
722.791
702.033
472.385
332.349
324.465
409.551
445.516
447.029
157.341
40.49
29.7365
20.6931
-13.357
-66.1358
-59.3381
272.397
577.963
593.003
639.699
683.745
674.34
334.426
332.766
330.42
414.494
444.62
444.238
29.8675
25.3218
11.5853
-1.61433
-10.8871
-18.2653
19.5932
190.383
316.873
487.22
594.672
636.868
520.386
333.977
331.053
331.984
375.326
412.939
439.196
29.152
27.9728
31.2847
49.1635
-13.1042
-17.708
-73.5087
70.5616
216.612
413.037
537.788
521.667
412.274
335.84
332.772
330.521
320.109
271.266
364.877
28.4319
27.043
25.0032
22.5749
22.1864
10.2575
-16.699
-23.8947
62.6466
272.874
323.19
315.615
294.276
323.245
330.804
318.373
162.577
18.2004
76.9671
27.8849
26.8357
24.9297
22.6113
20.5247
14.8356
5.30119
-14.7167
25.9154
83.6869
83.6235
91.498
89.2126
109.712
147.233
52.1784
6.87072
7.12609
9.20858
26.4846
26.7444
26.1684
25.2692
24.0219
13.0487
-10.5132
29.3573
27.7406
5.53059
3.10874
2.34746
2.15872
2.22823
4.25413
3.58863
4.06058
5.50545
5.55705
-5.75987
14.7066
26.9282
27.9215
27.1813
25.5596
15.1603
1.68059
2.3156
2.80136
2.18277
2.053
2.20815
2.19078
2.4696
1.9008
3.13407
4.16975
-0.957188
-3.24274
-1.53202
19.3492
28.7108
7.63559
-5.09972
0.258086
0.730202
1.63089
2.41466
1.91385
1.79543
1.95611
1.97958
1.8801
1.71589
1.92235
2.43029
4.17757
-3.6675
-3.15289
1.1808
4.78528
-0.921372
-3.71441
0.13996
0.444103
0.93077
1.41286
1.68597
1.57677
1.73254
1.67735
1.50613
1.10613
1.1398
1.99415
1.87811
-3.94771
-3.24827
-2.73787
-1.92938
-2.22475
-2.04628
-0.43113
-0.219579
0.116547
0.664138
0.866539
1.04963
1.25611
1.12511
0.830639
0.476809
0.116605
0.214145
0.27969
-3.57578
-3.3627
-2.98279
-2.49877
-2.77105
-2.56405
-2.02925
-1.70624
-1.30541
-0.674561
-0.430983
0.519893
0.638448
0.467634
0.163366
-0.174529
-0.711208
-0.573769
0.0918476
-3.21807
-3.57838
-3.19162
-2.71059
-2.90421
-2.97505
-2.72225
-2.43328
-2.24889
-2.03484
-1.52039
-0.0298054
0.0734203
-0.17945
-0.485389
-0.685283
-0.974013
-0.72669
-0.0863933
-3.40762
-3.46139
-3.3454
-3.07689
-3.01967
-3.02951
-2.84795
-2.63035
-2.50283
-2.42107
-2.25611
-1.72314
-0.400418
-0.668414
-1.01538
-1.08566
-1.13006
-0.87589
-0.677189
-3.70685
-3.61627
-3.54196
-3.38206
-3.2531
-3.14974
-3.00386
-2.83978
-2.70616
-2.59316
-2.4231
-2.32151
-0.927178
-0.786481
-1.12969
-1.0937
-0.983392
-0.795982
-0.620515
-4.07044
-3.89129
-3.7634
-3.60888
-3.45909
-3.31867
-3.17273
-3.02321
-2.87949
-2.73416
-2.56176
-2.26732
-0.987106
-0.728782
-0.832682
-0.792673
-0.654625
-0.57757
-0.523055
-4.44947
-4.19401
-4.00202
-3.82169
-3.65237
-3.49488
-3.34187
-3.19136
-3.04532
-2.8953
-2.72521
-2.38237
-1.93576
-1.0015
-0.86604
-0.781434
-0.514169
-0.391992
-0.460947
-4.8017
-4.4811
-4.23557
-4.02587
-3.83977
-3.66998
-3.50971
-3.35593
-3.20699
-3.06041
-2.85082
-2.57315
-2.3996
-1.82843
-1.13251
-1.0244
-0.667828
-0.562763
-0.830115
-5.09371
-4.73234
-4.45226
-4.2209
-4.02087
-3.84108
-3.67486
-3.51832
-3.3668
-3.22051
-3.00007
-2.79212
-2.62235
-2.42192
-1.69464
-1.45685
-1.17002
-0.904804
-1.09586
-5.32058
-4.94284
-4.64583
-4.40116
-4.19077
-4.00399
-3.83432
-3.67697
-3.52988
-3.39129
-3.19513
-3.01919
-2.8477
-2.66381
-2.44264
-1.94311
-1.75866
-1.49748
-1.24332
-5.4839
-5.10792
-4.80784
-4.5585
-4.34397
-4.15499
-3.98438
-3.82692
-3.68096
-3.54652
-3.38252
-3.22924
-3.0919
-2.93886
-2.98485
-2.57129
-2.32275
-2.02946
-1.32036
-5.58703
-5.22611
-4.93378
-4.68849
-4.47734
-4.29138
-4.1232
-3.96777
-3.82178
-3.67981
-3.53711
-3.39003
-3.27423
-3.19633
-3.27857
-3.05397
-2.27008
-2.09557
-0.834359
-5.6358
-5.30188
-5.02632
-4.79312
-4.59171
-4.41355
-4.25206
-4.10211
-3.95858
-3.81666
-3.67453
-3.50221
-3.3517
-3.2193
-3.18203
-2.85587
-2.03228
-1.72035
0.807917
-5.64148
-5.34371
-5.09283
-4.87809
-4.69127
-4.5252
-4.3742
-4.23265
-4.09417
-3.95488
-3.80183
-3.61013
-3.41838
-3.17893
-3.00778
-2.74447
-2.30991
-3.82146
-0.615335
-5.61708
-5.36053
-5.13993
-4.94837
-4.78008
-4.62963
-4.49205
-4.36184
-4.23279
-4.10119
-3.94686
-3.74717
-3.53064
-3.30228
-3.24328
-3.19286
-4.55004
-5.16862
-6.36226
-5.57357
-5.35937
-5.17165
-5.00612
-4.85914
-4.72696
-4.60576
-4.49123
-4.37779
-4.25784
-4.11705
-3.92687
-3.68774
-3.49302
-3.64714
-4.12065
-4.78568
-4.97107
-5.18101
-5.51964
-5.34592
-5.19085
-5.05204
-4.92762
-4.81565
-4.7143
-4.62152
-4.53274
-4.43909
-4.32594
-4.16578
-3.9547
-3.84977
-4.93539
-5.17975
-4.71445
-4.67157
-4.57064
-5.46251
-5.32547
-5.20076
-5.08762
-4.98572
-4.89497
-4.81619
-4.75071
-4.69695
-4.65091
-4.5982
-4.51573
-4.41851
-4.49941
-5.52501
-6.29027
-4.94965
-4.76863
-4.57617
-5.40812
-5.30298
-5.20538
-5.11589
-5.0353
-4.96502
-4.90873
-4.87325
-4.86832
-4.89679
-4.92154
-4.92792
-4.91826
-4.96435
-5.44067
-5.99144
-5.29809
-4.9858
-5.00109
-5.36087
-5.28264
-5.20872
-5.14048
-5.07904
-5.02661
-4.98878
-4.98102
-5.03777
-5.14951
-5.20559
-5.2275
-5.19456
-5.1603
-5.53707
-5.79173
-5.66281
-5.02556
-4.86452
-5.3235
-5.26749
-5.21402
-5.16471
-5.12003
-5.08033
-5.04992
-5.05591
-5.17235
-5.36929
-5.31191
-5.25689
-5.17415
-5.19635
-5.35845
-5.19461
-5.42569
-4.87262
-4.69349
-5.2977
-5.25961
-5.22348
-5.19114
-5.1614
-5.12987
-5.08932
-5.05734
-5.18944
-5.51664
-5.35777
-5.18507
-5.03328
-5.04628
-5.0049
-4.70729
-4.88968
-4.85588
-4.81059
-5.28473
-5.26047
-5.23837
-5.22138
-5.20899
-5.19272
-5.14109
-5.01832
-5.1014
-5.57911
-5.54435
-5.30986
-4.91309
-4.97113
-4.82226
-4.71975
-4.87858
-4.97034
-4.98952
-5.28563
-5.27119
-5.25942
-5.25582
-5.26489
-5.28936
-5.29255
-5.23129
-5.50084
-5.9132
-5.86176
-5.60534
-5.40874
-5.34538
-5.25863
-5.12803
-5.07422
-5.08528
-5.06068
-5.30123
-5.29284
-5.28714
-5.29208
-5.31936
-5.4005
-5.4748
-5.47877
-5.60098
-5.84155
-5.84329
-5.60832
-5.48348
-5.41515
-5.36274
-5.27552
-5.21365
-5.18186
-5.17395
-5.33211
-5.32684
-5.32296
-5.3295
-5.36095
-5.48006
-5.54807
-5.53324
-5.56239
-5.7037
-5.75157
-5.60666
-5.53627
-5.48413
-5.4338
-5.3793
-5.3342
-5.30221
-5.28258
-5.37855
-5.37495
-5.37037
-5.37224
-5.40343
-5.50648
-5.56922
-5.54895
-5.57576
-5.66885
-5.69952
-5.65246
-5.60695
-5.56526
-5.52434
-5.48487
-5.45157
-5.42698
-5.412
-5.44004
-5.43815
-5.43344
-5.43176
-5.45579
-5.57285
-5.65103
-5.62676
-5.6576
-5.71005
-5.73048
-5.71363
-5.68417
-5.65202
-5.61991
-5.58995
-5.56468
-5.54592
-5.53492
-5.51471
-5.51515
-5.51203
-5.51114
-5.53004
-5.71777
-5.81526
-5.77491
-5.77951
-5.79487
-5.79968
-5.78792
-5.76641
-5.74145
-5.71619
-5.69297
-5.67352
-5.65917
-5.65076
-5.5996
-5.6024
-5.60143
-5.60334
-5.62355
-5.88345
-5.97534
-5.92716
-5.90162
-5.89138
-5.88305
-5.86994
-5.85211
-5.83205
-5.81197
-5.79367
-5.77862
-5.76763
-5.76129
-5.69189
-5.69618
-5.69555
-5.69287
-5.73514
-6.01426
-6.23789
-6.0816
-6.02117
-5.98982
-5.97135
-5.95625
-5.94065
-5.92419
-5.90798
-5.89346
-5.88172
-5.87327
-5.86842
550.06
551.835
557.526
569.367
592.742
619.629
648.162
678.122
708.555
739.515
771.601
805.482
841.46
879.093
908.799
942.436
987.127
1005.81
1005.99
1029.47
1065.17
1101.66
1095.18
489.964
491.882
497.248
507.9
532.861
560.439
589.051
618.89
649.298
680.257
712.299
746.143
782.194
820.289
855.019
878.654
923.298
949.982
953.41
951.836
996.035
1032.92
1032.11
428.177
430.415
434.147
440.391
470.492
501.131
529.578
559.206
589.57
620.476
652.404
686.087
721.959
759.861
795.784
821.65
866.564
905.247
909.172
894.268
932.984
961.31
964.206
365.257
367.372
366.47
362.76
404.64
442.718
470.212
499.267
529.421
560.181
591.942
625.447
661.232
699.219
737.248
771.813
813.614
851.961
862.468
853.87
875.014
891.502
894.929
301.175
302.593
296.712
288.41
342.625
385.446
410.787
439.048
468.923
499.473
530.986
564.245
599.988
638.482
678.72
718.912
761.336
799.31
816.941
813.874
818.293
823.953
825.814
236.392
235.648
229.88
227.168
283.557
326.735
350.486
378.433
408.129
438.419
469.572
502.464
538.121
577.303
619.898
664.638
710.06
749.477
770.576
768.043
760.52
757.102
756.644
172.596
166.343
165.591
175.945
219.206
262.344
288.534
317.32
347.096
377.083
407.728
440.055
475.463
515.335
560.441
609.802
659.946
702.57
725.104
719.854
701.767
689.288
686.64
108.154
94.7336
100.422
126.568
154.817
194.495
225.266
255.84
285.941
315.546
345.486
376.947
411.799
452.176
499.892
554.583
611.063
658.824
682.463
671.336
640.496
618.306
616.523
344.396
338.834
264.499
261.861
270.574
552.809
949.154
1078.48
1114.74
1126.81
1083.09
1085.18
890.787
921.455
1235.49
949.687
776.878
723.494
925.759
279.463
228.183
223.072
223.21
223.158
415.773
888.348
1022.63
1069.42
1021.86
1040.57
831.039
693.449
768.868
1118.75
901.78
735.902
572.083
868.813
262.721
223.293
222.966
223.109
222.91
315.787
792.965
976.982
1091.99
975.886
894.05
688.156
691.183
700.791
1017.38
771.292
645.705
452.197
747.012
263.197
221.281
222.908
223.018
214.555
258.325
615.252
934.038
1104.82
944.575
695.206
681.652
690.478
698.802
902.368
510.322
486.827
501.913
786.023
258.933
231.618
222.62
217.38
133.134
97.7769
305.79
858.727
1112.95
822.367
648.97
678.77
684.794
674.429
710.365
382.997
397.114
484.167
863.501
223.051
222.768
219.159
150.874
33.1075
-2.52599
24.8691
725.601
1098.67
628.452
628.019
663.071
666.627
569.581
501.149
391.838
365.749
412.274
862.797
219.067
221.105
175.326
80.5281
-22.0482
-6.78154
4.07551
538.661
995.203
573.368
607.916
762.923
761.62
511.409
371.56
380.145
338.939
401.329
742.057
211.468
188.168
110.453
20.6728
-25.9394
-8.1035
-4.30446
315.729
830.523
516.16
568.758
755.746
780.689
488.334
342.465
369.596
338.208
487.317
629.432
32.0345
20.9383
27.2656
41.4149
68.723
108.705
143.998
177.132
207.621
236.465
265.18
295.004
328.524
368.984
419.998
482.635
550.138
607.71
633.531
611.824
560.335
521.445
506.972
9.8339
9.78168
9.54872
9.53271
9.57273
12.5222
26.6005
50.8561
79.8675
106.206
131.374
155.871
184.17
221.175
275.709
356.591
452.794
540.14
573.67
497.57
372.541
336.744
325.03
9.52815
9.37165
9.28476
9.27616
9.31102
9.27923
9.3067
8.75689
9.80207
13.2451
21.7323
28.5032
39.6261
56.4435
97.5789
207.412
347.14
496.117
570.661
462.381
354.575
324.73
311.563
9.08758
8.98509
8.98236
9.02044
9.05416
9.05447
8.94681
8.74973
8.71642
8.89149
8.99189
8.69694
8.31654
8.54574
11.1129
67.0765
197.924
478.693
573.66
327.294
310.544
256.3
114.638
8.65634
8.58665
8.65533
8.73611
8.75459
8.73918
8.67353
8.57342
8.59037
8.69211
8.75607
8.63325
8.3191
8.20553
7.71571
-11.3166
-107.353
51.2026
11.1838
7.79324
86.8716
126.486
46.5741
8.37463
8.35615
8.41251
8.46851
8.47731
8.46428
8.43925
8.42401
8.45144
8.5054
8.53733
8.52388
8.49143
8.81952
9.47112
16.1792
52.2314
-12.3055
-13.5911
-10.6615
-3.15642
27.2188
17.1735
8.15187
8.13999
8.17579
8.20382
8.20768
8.20218
8.2006
8.21642
8.25388
8.30315
8.35252
8.4248
8.61317
9.03946
9.8672
11.7188
18.4092
-20.9708
-21.2233
-16.3404
-11.1225
-11.3637
3.05906
7.88519
7.90549
7.92228
7.93336
7.93348
7.93144
7.93632
7.95811
7.99621
8.04357
8.09813
8.17142
8.29717
8.51683
9.15399
6.46612
-11.6533
-19.2704
-19.4154
-14.207
-8.91456
25.203
19.4986
7.63081
7.64616
7.65098
7.65028
7.64604
7.64297
7.6462
7.66251
7.69232
7.72831
7.76256
7.77968
7.7045
7.452
5.55519
-6.09003
-9.37244
-9.13346
-11.7573
-13.5142
-2.98875
31.693
2.83954
7.3585
7.36119
7.36039
7.3532
7.34354
7.33524
7.33171
7.33731
7.35344
7.37348
7.38624
7.3737
7.30374
7.23126
6.17695
-4.88593
-3.71672
-2.5473
-7.0197
-7.12291
-0.218333
-11.5957
-1.5659
7.0772
7.07312
7.06443
7.04903
7.03016
7.01173
6.99661
6.98807
6.98859
6.9939
6.99404
6.98101
6.96029
6.95632
6.85965
2.95514
11.8692
-8.11061
-8.57742
-8.56907
-9.6943
-13.5476
-2.77646
6.79996
6.78996
6.77148
6.74419
6.71105
6.67651
6.64427
6.61807
6.60142
6.59249
6.58229
6.55854
6.50255
6.36014
6.02941
5.36839
14.0025
-5.73992
-9.52667
-9.5021
-9.32051
-8.45089
-9.86805
6.53016
6.51433
6.48556
6.4435
6.39073
6.33267
6.27594
6.227
6.1913
6.16977
6.1546
6.13002
6.06994
5.92102
5.59813
5.37929
5.44284
-25.0837
-10.3123
-10.0171
-8.01158
-8.27618
-8.6633
6.27172
6.25046
6.21153
6.15268
6.07478
5.98397
5.89137
5.80977
5.75058
5.71981
5.71305
5.71423
5.69923
5.6418
5.55482
5.59579
4.14414
-15.7509
-9.07037
-9.51542
-7.4088
-7.66182
-8.11031
6.0277
6.00327
5.95661
5.88075
5.77235
5.63646
5.48883
5.35394
5.25898
5.2209
5.24132
5.30121
5.36392
5.3919
5.35915
5.18613
4.70443
-1.85353
-7.15198
-7.49799
-7.31987
-7.32423
-8.25542
5.79901
5.77694
5.72974
5.64147
5.49876
5.29953
5.06427
4.83361
4.67445
4.62479
4.70122
4.8725
5.06203
5.20322
5.26586
5.16845
5.00846
1.61409
-5.50776
-7.09605
-7.01958
-7.37171
-6.67418
5.58122
5.57163
5.53983
5.45467
5.28021
4.99135
4.60404
4.19504
3.90635
3.82081
4.00484
4.38528
4.78668
5.11843
5.37403
5.27551
4.97227
4.95969
2.37477
-7.19519
-7.03528
-8.33345
-4.85322
5.35787
5.37745
5.39104
5.34566
5.16072
4.74931
4.0941
3.29707
2.75498
2.46277
2.90763
3.71167
4.47907
5.18883
5.7176
5.45208
4.75585
5.21054
2.82155
-2.55025
-10.0569
-6.20577
-5.46453
5.09155
5.16264
5.26772
5.33256
5.20158
4.62409
3.39607
1.6789
0.439389
-1.10598
0.95531
2.57901
3.63968
4.78892
6.10311
3.40912
1.93367
-0.385346
-3.30454
-4.09327
-5.4461
-6.19016
-5.8802
4.7166
4.85627
5.10079
5.38161
5.42635
4.7886
2.53641
-3.70136
-6.68779
-8.30523
-4.79471
-0.777439
0.0183341
0.470145
-2.63732
-6.71985
-7.51728
-6.5675
-8.28044
-8.0808
-7.25296
-6.7869
-6.35478
4.14506
4.33731
4.71526
5.27483
5.62282
4.0449
-2.86981
-4.50975
-5.80371
-7.09599
-5.97575
-5.22552
-8.81896
-10.5597
-8.65331
-8.06029
-8.55623
-8.77156
-8.82595
-8.661
-8.00437
-7.35795
-6.69829
3.30796
3.47047
3.81037
4.33424
4.02081
-0.405158
-4.04244
-5.02166
-5.29829
-5.51146
-4.55806
-5.67265
-12.1163
-12.0368
-10.2562
-9.1563
-8.85884
-8.8918
-9.02093
-8.89568
-8.29578
-7.56653
-6.81624
2.23504
2.24419
2.17895
1.61616
-1.95192
-8.26466
-6.83039
-5.0308
-4.80728
-3.80698
-2.15482
-3.73779
-9.25653
-10.7169
-9.74009
-9.2772
-8.92399
-8.86238
-8.86961
-8.68409
-8.17108
-7.4615
-6.76418
1.09332
0.933109
0.477539
-0.74621
-4.04771
-9.18441
-6.56888
-5.7634
-4.84353
-3.58209
-2.2575
-3.19319
-7.20816
-8.62935
-9.96089
-9.6314
-9.03034
-8.91766
-8.78027
-8.42431
-7.85726
-7.2196
-6.64643
0.0629342
-0.163066
-0.707502
-1.8062
-3.90843
-6.2224
-6.14884
-5.54824
-4.71253
-3.76681
-3.41244
-4.45289
-7.21814
-8.06505
-10.0243
-9.58323
-8.97025
-8.86197
-8.56709
-8.03917
-7.47465
-6.95528
-6.49934
-0.772316
-0.989243
-1.45858
-2.2375
-3.33392
-4.42889
-4.8783
-4.7682
-4.36578
-3.87443
-3.63844
-4.29032
-6.76891
-7.19028
-8.15411
-8.48538
-8.60378
-8.49152
-8.05677
-7.54374
-7.09102
-6.689
-6.32737
-1.4269
-1.6083
-1.97127
-2.51335
-3.18879
-3.83688
-4.22872
-4.3316
-4.24948
-4.10832
-4.09837
-4.8451
-7.4211
-7.99936
-7.88774
-8.10985
-8.13064
-7.82857
-7.42561
-7.05788
-6.72945
-6.42542
-6.14467
-1.9481
-2.08973
-2.35998
-2.74128
-3.19057
-3.62589
-3.95411
-4.14295
-4.23365
-4.314
-4.54131
-5.26434
-6.85407
-8.45111
-7.92871
-7.64629
-7.38012
-7.11048
-6.86379
-6.62764
-6.39828
-6.17662
-5.96574
-2.37512
-2.48261
-2.68198
-2.95615
-3.27391
-3.59154
-3.86344
-4.07046
-4.23079
-4.39469
-4.64565
-5.11367
-5.92791
-6.63473
-6.75602
-6.71249
-6.6328
-6.5268
-6.40006
-6.25799
-6.10721
-5.95317
-5.80081
-2.73597
-2.81745
-2.9651
-3.16604
-3.39989
-3.64111
-3.86517
-4.0604
-4.2345
-4.41284
-4.63364
-4.93865
-5.33697
-5.72785
-5.95554
-6.05983
-6.09445
-6.07866
-6.02832
-5.95357
-5.86244
-5.76163
-5.6565
-3.05127
-3.11267
-3.2231
-3.37282
-3.54884
-3.73559
-3.91852
-4.09027
-4.25322
-4.41873
-4.60391
-4.82432
-5.07754
-5.3262
-5.51884
-5.64527
-5.71817
-5.7478
-5.74364
-5.71394
-5.6657
-5.60491
-5.53635
-3.3351
-3.38112
-3.46449
-3.5776
-3.71197
-3.85769
-4.00586
-4.15148
-4.29427
-4.43844
-4.5913
-4.75851
-4.93773
-5.1139
-5.26626
-5.38366
-5.46536
-5.51441
-5.53562
-5.53416
-5.51511
-5.483
-5.44164
-3.59555
-3.63096
-3.69473
-3.78106
-3.8848
-3.99932
-4.11892
-4.23979
-4.36044
-4.48192
-4.60698
-4.73779
-4.87282
-5.00538
-5.12582
-5.22656
-5.30438
-5.35907
-5.39245
-5.40738
-5.407
-5.39444
-5.37253
-3.83897
-3.86718
-3.91652
-3.98269
-4.0633
-4.15392
-4.25024
-4.34908
-4.44867
-4.54891
-4.65068
-4.75467
-4.85986
-4.96287
-5.05872
-5.14274
-5.21203
-5.26541
-5.30316
-5.32647
-5.33713
-5.3371
-5.32843
-4.0713
-4.09376
-4.13192
-4.18262
-4.24535
-4.31696
-4.39394
-4.47363
-4.55453
-4.63618
-4.71865
-4.80189
-4.88512
-4.96641
-5.04302
-5.11217
-5.17174
-5.22046
-5.25791
-5.28443
-5.30082
-5.30822
-5.30802
-4.29649
-4.31391
-4.34323
-4.38209
-4.43065
-4.48657
-4.54716
-4.61045
-4.67522
-4.74085
-4.80702
-4.87341
-4.93936
-5.00371
-5.06487
-5.12115
-5.17109
-5.21363
-5.24819
-5.27466
-5.2933
-5.3047
-5.30965
-4.51685
-4.53003
-4.55221
-4.58177
-4.61884
-4.66165
-4.70837
-4.75765
-4.80849
-4.86022
-4.91237
-4.96456
-5.01626
-5.06674
-5.11504
-5.16009
-5.20092
-5.23674
-5.26704
-5.29158
-5.31037
-5.3236
-5.3316
-4.73374