/*--------------------------------*- C++ -*----------------------------------*\
| =========                 |                                                 |
| \\      /  F ield         | OpenFOAM: The Open Source CFD Toolbox           |
|  \\    /   O peration     | Version:  v1912                                 |
|   \\  /    A nd           | Website:  www.openfoam.com                      |
|    \\/     M anipulation  |                                                 |
\*---------------------------------------------------------------------------*/
FoamFile
{
    version     2.0;
    format      ascii;
    class       volScalarField;
    location    "0.75";
    object      p_rgh;
}
// * * * * * * * * * * * * * * * * * * * * * * * * * * * * * * * * * * * * * //

dimensions      [1 -1 -2 0 0 0 0];


internalField   nonuniform List<scalar> 
9072
(
564.965
565.167
568.974
576.806
594.652
620.762
648.376
677.757
708.012
738.652
770.087
802.997
837.945
874.922
910.309
937.524
979.654
1018.63
1014.68
1034.99
1056.72
1105.76
1115.7
563.073
563.859
567.965
574.54
592.664
620.269
648.161
677.438
707.615
738.258
769.67
802.529
837.485
874.515
911.322
935.8
972.009
1016.25
1025.87
1024.63
1028.83
1094.67
1108.36
559.526
561.182
565.034
567.658
585.509
619.209
647.562
676.69
706.758
737.37
768.697
801.418
836.184
873.099
911.418
940.484
974.079
1021.59
1045.62
1010.05
1020.89
1083.74
1096.45
555.213
557.226
559.683
552.839
569.934
618.117
647.56
675.817
705.553
736.006
767.181
799.724
834.333
871.273
909.915
945.709
983.014
1025.91
1053.46
1035.39
1052.57
1076.52
1085.1
550.991
551.715
552.147
538.274
559.233
619.127
647.91
674.747
704.029
734.265
765.214
797.495
831.923
869.051
908.705
948.846
990.121
1031.82
1061.91
1066.34
1064.4
1071.64
1074.94
547.694
544.341
543.617
532.6
558.512
619.453
646.994
673.112
702.187
732.213
762.849
794.745
828.897
866.253
907.256
951.059
996.539
1040.17
1072.18
1080.62
1072.58
1067.22
1065.21
544.979
535.284
534.215
534.179
547.884
608.346
643.006
670.566
700.036
729.921
760.136
791.467
825.148
862.634
905.109
952.607
1003.06
1050.76
1085.07
1093.49
1078.64
1061.74
1054.67
533.8
524.3
522.64
537.909
534.585
601.171
636.662
667.298
697.702
727.489
757.137
787.652
820.54
857.892
901.778
953.269
1009.82
1063.64
1101.41
1107.81
1082.96
1052.87
1041.8
419.034
369.694
308.762
271.111
280.411
350.574
838.014
1040.71
1110.03
1170.12
1122.98
1057.01
1049.83
814.332
1201.99
1011.53
884.897
732.619
833.545
497.866
319.02
223.346
223.272
223.181
259.807
830.324
1039.04
1121.67
1140.55
1125.4
1014.26
738.085
705.111
1085.16
937.689
936.57
678.83
753.426
509.557
229.171
222.917
223.279
223.066
254.403
768.519
1019.13
1180.09
1150
1117.52
805.529
690.135
695.882
907.095
854.308
821.063
606.146
556.382
512.982
270.017
239.68
223.259
224.546
380.328
634.268
967.611
1250.39
1217.9
1025.17
675.55
688.577
695.373
851.219
821.247
573.474
604.417
680.921
522.21
464.78
260.473
223.974
423.229
344.106
360.843
830.602
1294.35
1285.01
853.803
668.39
689.725
752.747
894.15
722.567
406.484
536.726
790.022
281.004
226.244
224.433
460.619
390.493
155.638
7.05479
551.267
1271.79
1288.42
610.852
660.244
962.645
975.375
793.54
643.872
381.271
447.952
834.426
233.005
226.747
478.256
484.221
211.707
-11.5711
-1.73093
429.895
1174.02
1149.42
585.557
941.246
1106.23
1101.27
718.353
439.332
357.079
350.471
911.928
598.15
621.865
569.221
376.14
-22.3073
-13.861
-3.72476
227.525
1064.72
958.252
552.989
1105.27
771.718
1031.56
480.996
405.183
408.351
608.415
1026.04
159.506
232.534
220.106
375.863
492.695
591.407
628.492
663.111
694.825
724.318
752.94
781.998
813.269
849.838
895.131
952.256
1018.64
1083.58
1128.24
1130.61
1089.28
1039.45
1015.5
10.5106
10.4796
10.3103
10.104
10.2593
16.4734
189.391
514.893
683.159
720.857
746.238
770.894
796.562
828.55
872.804
940.485
1031.52
1127.09
1194.98
1176.86
980.895
569.117
513.893
10.1839
10.2033
10.0729
10.0219
10.0495
10.0497
10.0712
9.87521
17.5927
64.5125
200.27
386.114
512.177
641.491
755.15
898.64
1027.04
1174.17
1306.93
1010.35
635.605
558.418
417.622
9.85444
9.90759
9.84968
9.87969
9.91561
9.96423
9.89097
9.72673
9.57472
9.66476
9.85891
9.77677
9.34487
9.28806
10.7752
230.409
1006.45
1179.54
1452.26
824.157
930.794
949.445
572.381
9.63601
9.61733
9.60865
9.70892
9.75283
9.75978
9.73994
9.62404
9.56564
9.64945
9.74901
9.73053
9.48894
9.23268
9.33133
5.89881
121.082
968.36
45.3006
64.965
208.546
791.476
508.757
9.50854
9.53986
9.51666
9.57576
9.60468
9.60125
9.58057
9.55673
9.55995
9.60668
9.66142
9.66293
9.63322
9.68514
10.4425
12.2362
197.494
22.3046
-11.3387
-8.67781
-0.757574
461.426
761.397
9.33384
9.52658
9.43173
9.44695
9.46092
9.45877
9.45325
9.45915
9.48674
9.53254
9.58121
9.63485
9.74989
10.0469
10.6298
12.2505
72.8388
-8.56863
-17.9881
-15.2847
-9.46726
29.372
812.264
9.17321
9.35997
9.29175
9.30817
9.31253
9.31083
9.31079
9.32343
9.35502
9.39796
9.44823
9.50908
9.60646
9.76248
10.4545
58.5703
72.7615
16.0566
-16.2973
-13.3444
-4.88414
488.989
70.4774
9.05761
9.14759
9.15221
9.1552
9.15192
9.14782
9.14708
9.15625
9.17981
9.21382
9.24986
9.2788
9.2725
9.11463
17.8424
79.0844
70.192
-3.6448
-5.7355
-8.72447
187.95
699.687
222.405
8.90866
8.98949
8.99044
8.98635
8.97733
8.96792
8.96155
8.96203
8.97319
8.99258
9.01047
9.01363
8.98053
8.86961
9.1984
77.4663
74.3769
3.39457
14.4718
-4.08141
139.644
739.897
191.604
8.75608
8.82969
8.82381
8.81156
8.79388
8.7748
8.75771
8.74538
8.74135
8.74537
8.74931
8.74372
8.72377
8.70853
8.91755
30.35
100.687
84.6566
-2.413
-6.30688
-5.30732
201.575
21.3517
8.60846
8.67519
8.66124
8.63815
8.60739
8.573
8.5392
8.50947
8.48775
8.47571
8.46763
8.45224
8.4157
8.33038
8.12806
7.91921
22.4297
139.207
-6.73708
-7.43602
-6.57993
45.2997
15.6204
8.47031
8.52824
8.50618
8.47063
8.42268
8.36646
8.30822
8.25462
8.21177
8.18352
8.1667
8.1493
8.11123
8.01653
7.79185
7.41734
7.93236
141.102
100.592
-8.04078
-6.28726
-0.143542
-3.09613
8.345
8.3928
8.36312
8.31435
8.24557
8.16008
8.06678
7.9781
7.90654
7.86132
7.84389
7.84371
7.84013
7.80698
7.72714
7.65764
11.5317
153.899
5.9518
-7.56751
-5.27263
-4.8812
-4.69894
8.23413
8.27271
8.23811
8.17759
8.08545
7.962
7.81763
7.6728
7.555
7.48716
7.47937
7.52332
7.58948
7.63943
7.63875
7.55916
8.54595
172.38
129.377
-4.47653
-4.71845
-4.47781
5.7823
8.13573
8.17028
8.13761
8.07181
7.95754
7.78566
7.56404
7.32195
7.12221
7.01409
7.02751
7.15982
7.34968
7.60505
7.9062
7.69239
7.67532
160.004
180.238
-4.01424
-4.17031
-3.79482
157.444
8.03939
8.08289
8.06564
8.01141
7.88604
7.65564
7.31211
6.89988
6.53163
6.34324
6.37943
6.68839
7.13084
7.8274
8.13128
7.92035
7.66823
7.65966
48.8113
203.522
-3.67215
43.7531
175.723
7.91821
7.99656
8.01828
8.01057
7.90708
7.61741
7.081
6.33163
5.58874
5.20746
5.21363
5.93445
7.11552
7.84499
8.15851
8.3632
7.62673
7.7547
8.16732
233.779
227.877
215.253
-3.12467
7.7211
7.87585
7.97
8.06812
8.06103
7.74071
6.88526
5.35949
3.83577
5.57265
2.30164
4.58173
5.96216
7.10786
8.28564
150.061
203.664
217.04
244.54
242.451
241.587
125.751
-3.28612
7.3724
7.65266
7.84862
8.12627
8.348
8.08033
17.4584
41.301
35.3509
13.4344
1.77966
1.13226
2.65797
7.04283
117.171
58.7468
3.94405
201.244
143.434
8.27216
-2.60701
-4.14686
-3.70164
6.79482
7.22591
7.50775
7.98051
8.6072
15.0119
54.5227
-0.689226
-1.88814
-3.41063
-3.21918
-1.88012
-3.06439
54.6988
7.12139
4.83923
-4.05093
-5.53288
-5.72715
-5.73452
-5.31566
-4.66741
-4.02652
5.96859
6.50227
6.74527
7.19478
8.15751
61.1824
56.2043
34.7994
-1.83906
-2.30889
-1.83656
-1.27325
-3.67478
7.72973
-2.86429
3.65363
-5.81263
-5.71925
-5.81676
-5.83238
-5.41534
-4.80585
-4.05592
4.99199
5.49868
5.48798
5.2961
4.80616
56.1182
52.0551
7.31373
-1.61416
0.651864
1.16936
1.10167
-2.04441
-6.90876
1.65341
-6.20685
-5.80788
-5.60662
-5.61579
-5.54126
-5.17539
-4.57038
-3.84484
4.04608
4.41883
4.14162
3.40348
2.00825
1.90471
21.6228
-2.49306
-1.92116
-0.733371
1.94647
13.5899
-1.80048
-4.57655
3.25214
-6.51416
-5.88052
-5.44878
-5.30448
-5.17727
-4.77937
-4.15457
-3.53988
3.25626
3.48883
3.12142
2.34257
0.808611
-1.60075
-2.77579
-2.1283
-1.57009
-0.644077
0.0393606
21.9695
19.6149
-3.73378
-1.94559
-6.40186
-5.65328
-5.1917
-5.22817
-4.81141
-4.24719
-3.70048
-3.21264
2.63225
2.78088
2.44272
1.82666
0.879353
-0.28307
-1.10906
-1.22732
-0.963469
-0.476721
-0.072329
11.5749
26.9664
-0.188458
-3.46716
-4.71918
-4.80344
-4.92234
-4.6723
-4.16275
-3.67769
-3.2527
-2.87121
2.15797
2.26306
1.99031
1.53634
0.916407
0.225887
-0.315633
-0.552237
-0.549708
-0.41926
-0.320762
-0.524091
27.5195
25.4214
-1.49798
-4.22787
-4.40901
-4.24996
-3.86981
-3.47819
-3.13288
-2.81741
-2.5248
1.79946
1.88107
1.67303
1.34372
0.920855
0.466142
0.0748879
-0.182125
-0.313724
-0.385266
-0.512346
-0.925025
-1.94552
5.3191
-1.17704
-3.82813
-3.63398
-3.35905
-3.10289
-2.86232
-2.62973
-2.40389
-2.18722
1.52437
1.59177
1.43622
1.19619
0.895592
0.571748
0.27232
0.0328584
-0.146363
-0.300332
-0.495203
-0.834216
-1.47522
-2.32448
-2.73068
-2.72662
-2.66912
-2.57502
-2.45813
-2.32289
-2.17573
-2.02266
-1.86891
1.30771
1.36569
1.24939
1.07268
0.852494
0.611515
0.376372
0.166434
-0.0160767
-0.188131
-0.382463
-0.640984
-0.995875
-1.41259
-1.73075
-1.88493
-1.95184
-1.95885
-1.92429
-1.86065
-1.7768
-1.68006
-1.57653
1.13085
1.18323
1.09588
0.964153
0.799561
0.616121
0.429794
0.252146
0.085668
-0.0766514
-0.249686
-0.451217
-0.69023
-0.948071
-1.17335
-1.33147
-1.42977
-1.47978
-1.4914
-1.47351
-1.43373
-1.37854
-1.31336
0.982375
1.03067
0.964721
0.865349
0.740471
0.599163
0.451308
0.30409
0.160152
0.0174336
-0.130108
-0.289798
-0.464054
-0.644362
-0.810889
-0.946324
-1.04564
-1.11045
-1.14498
-1.15419
-1.14333
-1.11723
-1.08007
0.854962
0.899465
0.84878
0.773008
0.677234
0.567289
0.44962
0.329037
0.208262
0.0874675
-0.0354274
-0.16325
-0.296681
-0.431589
-0.559291
-0.670549
-0.759994
-0.826281
-0.869854
-0.893633
-0.900502
-0.893664
-0.876093
0.742188
0.783847
0.74407
0.685976
0.612151
0.525942
0.431996
0.334097
0.234768
0.134926
0.0340489
-0.0688171
-0.173679
-0.27834
-0.378424
-0.468844
-0.545742
-0.607143
-0.652586
-0.682924
-0.699666
-0.704737
-0.70012
0.63918
0.678991
0.64757
0.603109
0.546153
0.478508
0.403815
0.325224
0.244813
0.163523
0.0814853
-0.00141055
-0.0848184
-0.167381
-0.246696
-0.319896
-0.384466
-0.438714
-0.481792
-0.513706
-0.535034
-0.546775
-0.550189
0.542632
0.581239
0.55659
0.522571
0.478699
0.4261
0.367551
0.305414
0.241275
0.176026
0.110094
0.0437547
-0.0225335
-0.0878545
-0.150818
-0.209745
-0.263017
-0.309363
-0.347956
-0.378461
-0.400956
-0.415891
-0.423947
0.449551
0.487747
0.469018
0.443149
0.409701
0.369519
0.324555
0.27641
0.226247
0.174894
0.122904
0.0706805
0.0186567
-0.0325425
-0.0820628
-0.128867
-0.171919
-0.210332
-0.243437
-0.270862
-0.292521
-0.308497
-0.319062
0.357987
0.396767
0.383574
0.364536
0.339733
0.309834
0.276197
0.239903
0.201798
0.162571
0.122749
0.0827335
0.0428908
0.00365966
-0.0344115
-0.0706803
-0.104498
-0.135285
-0.16258
-0.186106
-0.20576
-0.221492
-0.233267
0.268376
0.308332
0.299869
0.286655
0.269162
0.24784
0.223669
0.197415
0.169702
0.141054
0.111887
0.0825274
0.05326
0.0243932
-0.00372762
-0.0307165
-0.0561795
-0.079768
-0.101218
-0.120403
-0.137322
-0.151937
-0.164038
0.18246
0.223434
0.218107
0.209532
0.198117
0.183992
0.167822
0.150131
0.131366
0.111906
0.092044
0.0720038
0.0519825
0.0321818
0.0128092
-0.00591054
-0.0237552
-0.0405465
-0.0561824
-0.0706959
-0.0842291
-0.0969417
-0.108706
0.100339
0.142105
0.138289
0.133218
0.126722
0.118592
0.109201
0.098846
0.0878041
0.0763111
0.06455
0.0526543
0.0407396
0.0289195
0.0173062
0.00601696
-0.00484277
-0.0151989
-0.0250367
-0.0344786
-0.0438887
-0.0538803
-0.0646759
0.0180949
0.0625368
0.0595398
0.0575019
0.0550202
0.0518524
0.0481729
0.044083
0.0396955
0.035107
0.0303969
0.0256208
0.0208259
0.0160568
0.0113532
0.00676111
0.00231792
-0.00194631
-0.00603818
-0.0100712
-0.0144665
-0.02049
-0.0296745
989.655
961.457
930.252
874.014
628.338
655.888
586.471
523.207
432.543
812.011
621.522
933.813
753.178
110.444
71.7812
53.4286
40.5752
31.9289
31.2332
30.9751
737.138
41.6231
30.3874
30.257
556.49
665.881
83.0748
29.6545
28.7467
667.512
668.784
657.774
2.92087
1.72864
4.67326
472.223
0.126936
-0.00447135
-0.468123
-0.853978
0.328488
70.8245
17.7714
-1.45422
150.399
152.094
150.927
152.432
18.426
161.193
161.017
160.95
169.161
173.072
159.243
-1.02827
180.115
133.214
-1.3431
-1.23201
125.033
-1.72317
-1.62399
-1.36275
-2.25872
-2.08928
-1.93665
-1.75893
-2.64472
-2.45427
-2.24436
-2.04495
-2.97265
-2.74963
-2.51657
-2.29838
-3.27255
-2.99847
-2.73007
-2.48844
-3.43726
-3.12037
-2.83654
-2.59188
-3.42121
-3.11067
-2.84623
-2.61734
-3.28184
-3.01676
-2.78451
-2.57786
-3.08293
-2.86412
-2.66256
-2.4787
-2.84326
-2.66085
-2.48962
-2.33085
-2.57396
-2.4244
-2.28303
-2.15058
-2.29151
-2.17239
-2.05897
-1.95178
-2.00977
-1.91774
-1.82933
-1.74495
-1.73873
-1.66991
-1.60292
-1.53824
-1.48492
-1.43522
-1.38603
-1.33792
-1.25191
-1.21747
-1.18278
-1.14835
-1.04144
-1.01885
-0.995632
-0.972102
-0.854133
-0.840423
-0.825844
-0.810543
-0.689754
-0.682328
-0.673861
-0.664497
-0.5474
-0.544135
-0.539816
-0.534611
-0.425892
-0.425316
-0.423766
-0.421358
-0.323973
-0.325164
-0.325426
-0.324805
-0.240065
-0.242461
-0.24397
-0.244567
-0.172073
-0.175387
-0.177895
-0.179528
-0.117551
-0.121605
-0.124991
-0.127613
-0.0738823
-0.0784587
-0.082545
-0.0860177
-0.0387369
-0.0435771
-0.048119
-0.0521952
734.158
652.44
431.1
88.2354
48.5257
97.9013
-3.05925
46.8278
992.936
1042.77
692.167
1120.65
735.659
839.234
296.888
472.884
812.666
912.596
716.846
375.198
148.451
107.73
258.761
511.2
266.984
386.902
575.972
1121.61
1145.45
1044.67
851.501
726.663
856.428
334.665
560.814
798.631
446.6
448.091
851.631
736.452
725.698
433.133
9.68529
249.712
595.396
873.945
1030.74
1070.96
658.068
704.727
1167.53
587.237
334.652
342.775
798.572
446
447.583
33.0296
659.694
816.778
320.149
14.9072
8.19081
144.513
657.315
605.075
503.333
610.821
714.857
1366.6
337.447
333.261
441.961
635.721
901.578
443.851
30.5046
29.4136
224.218
925.063
779.325
739.521
460.938
102.389
237.609
431.447
845.728
1505.63
1396.48
338.444
335.226
335.799
768.344
1100.89
1157.88
29.9573
28.5639
26.5288
28.1509
37.3634
20.8318
-5.29982
-2.58813
250.83
1353.74
1430.39
1423.39
1401.5
1093.71
348.256
735.299
1077.11
177.986
538.88
29.5796
28.5301
26.6231
24.3078
22.3124
17.6443
14.0264
395.204
1236.91
1302.36
1298.65
1316.6
1315.37
1309.17
1297.68
978.875
112.091
8.53011
309.026
148.32
28.613
28.0411
27.2027
26.4857
20.1573
658.944
1275.69
1229.59
102.961
4.56258
3.80824
8.28581
3.69791
5.7771
4.98085
5.45181
6.90993
145.882
713.176
758.754
58.6428
30.1359
31.1218
670.772
710.554
3.31003
3.94463
4.38738
3.76864
3.67288
3.89417
3.70977
11.5683
10.5322
4.64645
5.70495
135.643
-1.5039
6.24258
253.684
655.169
229.771
-1.9107
2.01431
2.4834
10.5784
7.8119
3.63462
3.70632
4.24604
3.60858
3.50925
3.36115
3.55587
4.08528
6.11872
-1.85353
-1.2406
17.5376
17.7721
6.04484
-1.02494
2.04254
4.55051
10.5659
11.068
6.78033
3.4012
4.00685
3.43154
3.26063
2.86064
2.95118
6.25297
8.29867
-2.03328
-1.33598
-0.822122
11.2569
0.0325505
0.168918
6.99214
10.1194
8.30107
8.92673
17.2361
3.03766
3.17469
3.00448
2.71115
2.35812
2.02436
27.6967
3.62753
-1.53782
-1.32476
-0.943074
-0.452556
0.7823
7.5868
8.81284
9.00254
14.4315
16.5109
17.0531
4.15838
2.71369
2.4722
2.16793
1.83004
1.29338
28.7185
3.63224
-1.06602
-1.41316
-1.02349
-0.478493
-0.76802
-0.845083
-0.592492
-0.303524
-0.119123
0.0981078
15.0069
13.5226
2.76762
1.95032
1.64437
1.44451
1.15578
29.8766
4.01947
-1.12768
-1.06413
-0.575401
-0.0280384
-0.0945319
-0.756943
-0.592987
-0.37539
-0.247878
-0.166081
0.153935
18.1357
2.8828
1.59162
1.27046
1.17129
1.12494
3.35008
33.0715
-0.501138
-0.410551
-0.365726
-0.737537
-0.597773
-0.769648
-0.623671
-0.459589
-0.326
-0.210928
0.398585
16.8052
3.11285
1.60385
1.2908
1.33057
1.39702
1.58454
48.3649
-1.56516
-1.38601
-1.25812
-1.1036
-0.953803
-0.813386
-0.667357
-0.517922
-0.366758
-0.224209
1.50744
0.693035
13.272
1.79382
1.68752
1.82869
1.85149
1.92857
2.06324
-1.81898
-1.56353
-1.37153
-1.1912
-1.02189
-0.864403
-0.711358
-0.560877
-0.40596
-0.264477
1.5602
0.340036
15.139
15.7548
3.03905
1.85215
2.11691
5.93439
2.32846
-2.04602
-1.72542
-1.47989
-1.2702
-1.0841
-0.914303
-0.754037
-0.600117
-0.451305
-0.304716
1.70751
0.27792
0.381364
17.8769
3.42829
1.7325
2.08847
11.8261
2.94512
-2.21284
-1.85147
-1.57139
-1.34003
-1.14
-0.960211
-0.793994
-0.6372
-0.485927
-0.318637
1.76535
0.143876
0.284921
0.485639
16.1742
1.42865
1.71158
12.0469
2.17765
-2.31452
-1.93678
-1.63976
-1.3951
-1.18471
-0.997923
-0.828255
-0.670906
-0.52381
1.466
0.708923
0.606005
0.276386
0.380509
14.545
1.07629
1.24866
6.67398
2.18601
-2.35265
-1.97667
-1.6766
-1.42725
-1.21272
-1.02374
-0.853132
-0.695668
-0.549703
-0.415261
-0.251237
0.55616
0.191886
3.55322
1.09474
3.03292
1.91509
8.60915
6.87141
-2.33058
-1.96966
-1.67733
-1.43205
-1.2209
-1.03494
-0.866751
-0.711327
-0.564863
-0.423359
-0.151621
0.3422
0.418128
5.10952
0.556267
2.32347
1.00649
4.53184
13.2106
-2.25416
-1.92024
-1.64468
-1.41148
-1.21007
-1.03191
-0.870418
-0.720464
-0.576836
-0.43502
0.432882
0.621887
0.0335946
5.39163
0.851722
0.546361
1.36945
17.4262
13.3485
-2.13464
-1.83688
-1.58599
-1.37126
-1.18443
-1.01836
-0.867365
-0.725812
-0.587332
-0.448042
0.471737
0.267027
0.0905055
2.77168
1.15882
0.786445
13.9602
16.3823
58.484
-1.98505
-1.7285
-1.5079
-1.31634
-1.14805
-0.997605
-0.860019
-0.729811
-0.600761
-0.469161
0.452242
-0.110168
0.102446
1.31141
2.88084
14.0551
15.2786
-1.53532
18.3214
-1.81634
-1.60214
-1.41443
-1.2489
-1.10192
-0.969731
-0.848529
-0.733997
-0.620562
-0.500453
-0.359017
-0.168843
0.070404
1.50235
4.66351
20.3949
-1.0237
-1.2138
3.20606
-1.63722
-1.4635
-1.30843
-1.16962
-1.0452
-0.933231
-0.831876
-0.739091
-0.649674
-0.538139
-0.436829
-0.2824
-0.0709995
2.47948
12.2576
4.31173
-0.831967
-0.789102
-0.0696506
-1.45489
-1.31785
-1.19314
-1.08
-0.978105
-0.887358
-0.808539
-0.743053
-0.670561
-0.624175
-0.588813
-0.392679
-0.373907
2.01257
-0.35283
17.3038
13.9507
-0.760905
1.1097
-1.27531
-1.17017
-1.07257
-0.983079
-0.902493
-0.832185
-0.764967
-0.717666
-0.725933
-0.762797
-0.730291
-0.613326
-0.768091
1.83387
-0.607272
13.2199
-1.12199
-0.848512
1.98128
-1.10286
-1.02463
-0.950714
-0.882473
-0.821034
-0.720571
-0.527035
-0.68041
-0.779186
-0.889084
-0.850931
-0.955311
-0.922369
2.24933
0.580072
-0.454618
0.409985
0.585565
-0.511971
-0.940296
-0.884286
-0.830815
-0.781505
-0.736824
-0.488002
-0.477057
-0.672399
-0.788763
-0.858738
-0.91106
-0.858552
0.826034
0.0757797
-0.345936
-0.196041
9.69927
11.1986
-0.0156593
-0.789304
-0.751216
-0.71508
-0.682741
-0.448622
-0.4153
-0.580649
-0.548672
-0.663716
-0.398754
-0.0590873
-0.575892
4.92953
2.8132
1.53086
1.56727
11.4544
3.2004
-0.301624
-0.651139
-0.626875
-0.604776
-0.587786
-0.561322
-0.558864
-0.507213
-0.384434
-0.449601
17.0081
17.5621
17.8535
18.2214
7.10973
1.93828
10.0765
8.05745
-0.336728
-0.355714
-0.526847
-0.512401
-0.500637
-0.496411
-0.506007
-0.530213
-0.533402
-0.405157
-0.741979
-1.15434
-1.10176
7.96402
2.56589
6.20452
10.7411
4.08959
-0.31543
-0.32649
-0.198217
-0.417261
-0.408869
-0.403162
-0.40807
-0.435355
0.0978308
-0.55484
0.131407
-0.716941
-0.957516
-0.934938
1.9789
-0.599511
-0.531177
-0.478771
-0.391547
-0.329677
-0.297884
0.0324127
-0.322939
-0.317667
-0.313786
-0.320304
-0.210956
1.53486
1.45654
-0.523966
-0.55315
-0.69435
0.148925
2.35357
-0.527036
-0.474948
-0.424626
-0.37013
-0.325035
-0.293041
-0.273414
-0.244185
-0.240582
-0.236005
-0.237874
0.812365
1.66239
-0.433846
-0.413927
-0.380039
0.105897
0.859723
-0.518095
-0.471434
-0.4309
-0.389973
-0.350506
-0.317208
-0.292615
-0.27764
-0.180484
-0.17859
-0.173881
-0.172205
0.257305
-0.250987
-0.2583
0.170067
0.0945394
-0.174093
-0.470921
-0.454068
-0.424614
-0.392464
-0.360349
-0.330397
-0.305123
-0.286365
-0.275366
-0.129962
-0.130395
-0.127277
-0.126387
-0.0240211
0.356276
-0.190847
-0.390161
-0.394758
-0.410112
-0.414922
-0.403172
-0.381654
-0.356694
-0.331437
-0.308222
-0.288766
-0.274414
-0.266005
-0.0896472
-0.0924503
-0.0914781
-0.0933914
0.239713
0.324174
-0.46539
-0.417214
-0.391676
-0.381431
-0.3731
-0.359993
-0.342157
-0.322101
-0.30202
-0.28372
-0.268674
-0.257679
-0.251345
-0.0567512
-0.0610345
-0.060407
-0.0577275
-0.0722115
0.725211
-0.602746
-0.446455
-0.38603
-0.354678
-0.336202
-0.321106
-0.30551
-0.289047
-0.272841
-0.25832
-0.246573
-0.23813
-0.233273
564.775
566.55
572.24
584.082
607.457
634.343
662.876
692.837
723.27
754.23
786.316
820.196
856.175
893.808
922.875
956.651
1001.84
1020.49
1020.6
1044.19
1079.89
1116.37
1109.89
563.538
565.455
570.822
581.473
606.434
634.013
662.624
692.463
722.872
753.831
785.873
819.717
855.767
893.859
924.519
950.483
996.871
1023.55
1026.94
1016.39
1061.62
1106.5
1105.68
560.609
562.847
566.579
572.823
602.924
633.563
662.01
691.638
722.002
752.908
784.836
818.519
854.391
892.293
928.17
953.511
998.992
1037.68
1031.66
1006.39
1064.38
1093.68
1096.64
556.548
558.662
557.761
554.051
595.93
634.009
661.503
690.558
720.712
751.471
783.233
816.738
852.523
890.51
928.538
963.104
1004.9
1043.25
1050.05
1033.84
1066.3
1082.79
1086.22
551.325
552.742
546.861
538.56
592.775
635.596
660.937
689.197
719.073
749.623
781.136
814.395
850.137
888.631
928.87
969.062
1011.49
1049.46
1067.09
1064.02
1068.44
1074.1
1075.96
545.401
544.657
538.889
536.176
592.566
635.741
659.495
687.441
717.137
747.428
778.581
811.473
847.129
886.311
928.906
973.647
1019.07
1058.49
1079.58
1077.05
1069.53
1066.11
1065.65
540.464
534.21
533.458
543.813
568.59
630.211
656.401
685.187
714.963
744.95
775.595
807.922
843.33
883.202
928.308
977.669
1027.81
1070.44
1092.97
1087.72
1069.63
1057.16
1054.51
534.88
521.459
527.148
534.299
572.787
621.22
651.992
682.566
712.666
742.271
772.212
803.673
838.524
878.901
926.618
981.309
1037.79
1085.55
1109.19
1098.06
1067.22
1045.03
1043.25
358.149
352.997
278.702
276.442
285.232
567.496
963.841
1093.01
1129.12
1141.48
1097.61
1099.55
905.145
935.18
1249.01
963.187
789.186
736.049
938.722
349.1
239.533
223.15
223.289
225.347
471.688
961.782
1096.07
1142.86
1094.77
1113.72
899.577
697.947
803.045
1179.24
956.552
803.739
632.519
938.7
328.13
223.436
223.107
223.25
223.056
435.03
925.145
1109.16
1224.17
1105.57
1023.95
690.783
691.874
704.002
1107.44
853.209
740.242
499.026
861.159
364.971
255.054
225.65
223.224
323.917
449.176
806.18
1124.97
1295.75
1135.41
822.533
682.694
691.522
700.676
1085.22
643.482
627.496
568.504
866.775
490.215
390.626
227.3
320.094
378.126
335.476
554.781
1108.4
1362.63
1071.21
651.333
680.611
717.602
860.791
951.159
407.222
408.996
636.832
1058.45
336.192
225.087
280.221
447.635
332.803
3.62587
126.737
1033.99
1407.06
881.666
632.942
838.493
963.674
867.079
798.647
415.649
380.427
592.548
1114.71
224.943
265.634
530.517
433.242
-7.3882
-5.6605
18.5564
905.685
1362.23
710.532
614.342
1096.37
1111.39
864.426
668.825
397.108
355.903
514.62
1105.93
439.289
604.266
524.834
71.0175
-24.5
-6.87707
3.51071
741.456
1256.13
558.605
844.056
839.466
913.754
679.224
381.316
524.452
382.419
907.994
1051.83
361.468
203.868
300.053
423.678
564.615
610.873
646.167
679.3
709.789
738.633
767.349
797.173
830.693
871.153
922.166
984.803
1052.31
1109.88
1135.7
1113.99
1062.48
1023.56
1009.14
10.4871
10.4114
10.1795
10.1652
10.2036
80.8818
344.929
625.222
707.231
733.569
758.738
783.234
811.534
848.538
903.072
983.954
1080.16
1167.5
1201.03
1123.96
744.428
500.741
575.723
10.2811
10.1242
10.0373
10.0289
10.0648
10.0319
10.0593
9.50951
38.4595
113.444
303.393
447.389
581.432
697
822.888
959.969
1099.7
1248.12
1312.69
704.053
634.65
444.596
399.582
9.96534
9.86284
9.86012
9.8982
9.94318
9.94909
9.82458
9.62751
9.59419
9.76927
9.86993
9.57583
9.21154
9.64187
15.8046
786.519
1068.04
1354.39
1057.07
955.779
955.755
715.323
685.357
9.65929
9.5896
9.65828
9.73906
9.75755
9.76585
9.69013
9.57689
9.5954
9.70457
9.76829
9.63636
9.32665
9.23294
8.9834
-6.56564
709.855
351.222
66.797
28.6642
655.25
772.679
89.7673
9.50278
9.54171
9.54066
9.59666
9.60545
9.59245
9.56751
9.55222
9.57969
9.63734
9.668
9.65207
9.61984
9.95591
10.8863
46.431
189.867
-8.14629
-10.1618
-6.00588
31.3789
754.525
744.48
9.53691
9.52624
9.43188
9.45716
9.46102
9.45552
9.45395
9.46978
9.50841
9.55671
9.60588
9.67817
9.86671
10.295
11.1847
20.3549
73.9162
-17.3374
-17.5951
-12.525
-3.37505
486.412
517.739
9.27386
9.28946
9.30084
9.31189
9.31201
9.30997
9.31488
9.33679
9.37604
9.42211
9.47667
9.54999
9.67713
9.94777
21.529
80.8873
62.7753
-15.3078
-15.4528
-10.0545
121.293
565.051
25.0801
9.13454
9.14989
9.15471
9.15401
9.14977
9.14669
9.14998
9.16625
9.19605
9.23205
9.2663
9.28351
9.21374
9.20245
75.1663
74.4065
14.5782
-4.80561
-7.40992
-1.11921
669.221
717.975
4.5609
8.98742
8.99011
8.98931
8.98212
8.97245
8.96415
8.96063
8.96623
8.98236
9.00241
9.01516
9.00265
8.93455
8.92593
21.5248
76.522
22.6046
7.28799
2.97202
-0.383533
683.521
727.617
0.235792
8.83132
8.82723
8.81854
8.80314
8.78427
8.76584
8.75072
8.74219
8.7427
8.74801
8.74816
8.73513
8.71487
8.73455
9.48126
85.5802
110.662
-0.180637
-5.41407
-6.06878
26.8406
257.832
-0.80257
8.67927
8.66927
8.65078
8.6235
8.59036
8.55581
8.52357
8.49738
8.48072
8.4718
8.46159
8.43785
8.38195
8.24541
8.02639
7.89775
98.9834
94.3039
-7.17199
-7.12481
-3.75159
65.388
112.051
8.53466
8.51883
8.49006
8.44801
8.39524
8.33718
8.28044
8.2315
8.1958
8.17427
8.15911
8.13453
8.07446
7.92592
7.60945
7.44749
37.8966
120.97
-7.84752
-7.55493
-4.07087
-0.682189
-2.66327
8.40141
8.38016
8.34123
8.28238
8.20448
8.11367
8.02106
7.93947
7.88028
7.84951
7.84275
7.84393
7.82892
7.77152
7.68508
7.78219
120.461
138.974
-6.45563
-6.90077
-4.79374
-4.95857
37.7888
8.28259
8.25816
8.2115
8.13565
8.02725
7.89135
7.74372
7.60884
7.51388
7.47579
7.49621
7.55611
7.61881
7.6468
7.61431
7.49438
99.9873
169.939
-4.38348
-4.72963
-4.54908
-4.377
149.206
8.1791
8.15703
8.10983
8.02156
7.87884
7.67961
7.44435
7.2137
7.05454
7.00487
7.08131
7.25259
7.44212
7.84336
7.74447
7.62509
24.3577
183.465
141.62
-4.17275
-4.04404
16.8707
182.983
8.0865
8.07691
8.04511
7.95995
7.78549
7.49663
7.10932
6.70033
6.41163
6.32609
6.51012
6.89064
7.65307
7.98591
8.11556
7.79877
7.55666
10.2361
134.151
44.1831
-3.19515
174.739
12.7132
7.98835
8.00793
8.02152
7.97614
7.7912
7.37979
6.72457
5.92755
5.38546
5.09325
5.53811
6.39047
7.4887
7.92447
8.36323
8.0976
7.40307
7.91
166.547
232.331
221.85
131.981
-2.83259
7.84723
7.91831
8.0234
8.08824
7.95725
7.37976
6.15174
4.43457
6.74296
1.6497
3.71103
5.37225
6.53417
7.60788
12.5208
201.924
209.459
244.483
243.189
242.378
240.022
-3.43449
-3.12164
7.59747
7.73714
7.98166
8.26248
8.30715
7.67167
44.7867
37.2958
22.3332
12.4315
0.785743
2.16352
3.29111
78.3323
124.986
1.90669
81.2495
248.093
45.893
-1.33752
-4.32784
-3.90603
-3.47392
7.15113
7.34338
7.72135
8.2848
8.85791
52.1995
34.2979
-1.36519
-2.69261
-3.86536
-2.73082
-2.00094
-3.68346
91.5904
1.86406
1.77416
-5.44848
-5.64664
-5.78031
-5.58201
-4.9793
-4.35184
-3.69222
6.43921
6.60172
6.94207
7.52709
28.6464
58.5721
53.6584
0.682191
-2.07522
-2.27778
-1.28147
-2.31443
7.56947
-6.6983
3.11414
-5.5648
-5.72289
-5.75577
-5.88477
-5.65285
-5.16012
-4.43512
-3.68489
5.49148
5.50063
5.43581
4.93267
37.17
53.0707
53.1571
-1.67968
-1.31469
1.40559
1.25342
-0.303444
-5.25657
-5.29229
1.36197
-6.01739
-5.66422
-5.60238
-5.60938
-5.36808
-4.91303
-4.20502
-3.50772
4.47496
4.31475
3.85983
2.73579
0.0752884
15.3058
1.85385
-2.29426
-1.37915
0.00557121
11.7147
3.49672
-3.48916
-3.26963
-1.19512
-6.24626
-5.59426
-5.38888
-5.21688
-5.04248
-4.47562
-3.83796
-3.26479
3.56977
3.34377
2.79934
1.70147
-0.339889
-2.49577
-2.52439
-1.9109
-1.1089
-0.248497
1.26321
26.9186
-3.3657
-4.21481
-5.58938
-6.07272
-5.25016
-5.1526
-5.06002
-4.53233
-3.96781
-3.44845
-2.9925
2.85971
2.64279
2.17345
1.39459
0.302538
-0.782307
-1.23547
-1.13339
-0.73308
-0.241154
0.0210066
28.2012
25.4358
-3.20259
-4.27612
-4.82701
-4.85517
-4.85942
-4.42473
-3.91171
-3.45898
-3.05697
-2.69534
2.33032
2.14892
1.78595
1.24388
0.568669
-0.0788414
-0.470871
-0.574172
-0.492197
-0.351073
-0.341127
3.44394
26.0024
25.2585
-4.12383
-4.3504
-4.3727
-4.07133
-3.66838
-3.30065
-2.97222
-2.6682
-2.38745
1.93432
1.79269
1.52244
1.14114
0.69186
0.256566
-0.0716581
-0.260521
-0.351224
-0.431581
-0.658893
-1.36964
-0.932751
0.547956
-2.84016
-3.75339
-3.49702
-3.22803
-2.98137
-2.74522
-2.51586
-2.2942
-2.08332
1.6325
1.525
1.32563
1.05147
0.73371
0.41608
0.144173
-0.0628412
-0.223169
-0.387073
-0.638029
-1.10568
-1.90892
-2.61848
-2.74489
-2.70381
-2.62518
-2.51918
-2.39244
-2.25038
-2.09959
-1.94556
-1.79319
1.39684
1.31536
1.16771
0.966767
0.732923
0.491701
0.267644
0.0724122
-0.101687
-0.280025
-0.500827
-0.805829
-1.20397
-1.59487
-1.82269
-1.92701
-1.96164
-1.94585
-1.89551
-1.82075
-1.72963
-1.62882
-1.52369
1.20674
1.14533
1.0349
0.885185
0.70917
0.522421
0.339489
0.167733
0.00478484
-0.160722
-0.345905
-0.566316
-0.819531
-1.06819
-1.26084
-1.38727
-1.46016
-1.4898
-1.48563
-1.45593
-1.4077
-1.3469
-1.27834
1.0481
1.00208
0.918712
0.805596
0.671233
0.525509
0.377337
0.231722
0.0889357
-0.0552391
-0.208104
-0.375314
-0.554527
-0.730704
-0.883055
-1.00046
-1.08216
-1.13121
-1.15242
-1.15096
-1.1319
-1.0998
-1.05843
0.912849
0.877437
0.813665
0.727334
0.623601
0.509077
0.389472
0.268608
0.147956
0.0264731
-0.0985853
-0.229397
-0.36442
-0.496982
-0.617423
-0.718165
-0.795989
-0.85067
-0.884055
-0.89898
-0.898604
-0.886048
-0.864134
0.794619
0.766416
0.717072
0.650902
0.570288
0.479668
0.383353
0.284516
0.184921
0.0846816
-0.0170907
-0.121076
-0.226267
-0.329283
-0.425128
-0.509151
-0.578442
-0.631818
-0.669569
-0.692878
-0.70354
-0.703512
-0.694834
0.687483
0.665025
0.626869
0.576166
0.513441
0.441822
0.364847
0.285161
0.204254
0.122605
0.0401414
-0.0431069
-0.126333
-0.207623
-0.284234
-0.353388
-0.412955
-0.461674
-0.499123
-0.52564
-0.542029
-0.549436
-0.549236
0.58748
0.57006
0.540743
0.501884
0.453318
0.397406
0.336815
0.273525
0.208756
0.143127
0.0769554
0.0105592
-0.0553918
-0.119734
-0.180894
-0.237179
-0.287121
-0.329661
-0.364219
-0.390687