/*--------------------------------*- C++ -*----------------------------------*\
| =========                 |                                                 |
| \\      /  F ield         | OpenFOAM: The Open Source CFD Toolbox           |
|  \\    /   O peration     | Version:  v1912                                 |
|   \\  /    A nd           | Website:  www.openfoam.com                      |
|    \\/     M anipulation  |                                                 |
\*---------------------------------------------------------------------------*/
FoamFile
{
    version     2.0;
    format      ascii;
    class       surfaceScalarField;
    location    "0.75";
    object      phi;
}
// * * * * * * * * * * * * * * * * * * * * * * * * * * * * * * * * * * * * * //

dimensions      [0 3 -1 0 0 0 0];
oriented        oriented;


internalField   nonuniform List<scalar> 
17936
(
-8.6415e-07
2.5099e-06
-1.64575e-06
2.15599e-06
-3.12451e-06
9.68526e-07
3.81945e-06
-4.6069e-06
7.8745e-07
5.62013e-06
-6.60119e-06
9.81064e-07
7.02649e-06
-6.66678e-06
-3.59716e-07
5.86865e-06
-5.21734e-06
-6.51304e-07
4.96698e-06
-5.08391e-06
1.1693e-07
5.51289e-06
-6.17307e-06
6.60177e-07
6.9298e-06
-7.67506e-06
7.45254e-07
8.35041e-06
-8.94269e-06
5.92281e-07
9.4658e-06
-9.93997e-06
4.74171e-07
1.0382e-05
-1.08034e-05
4.21371e-07
1.12239e-05
-1.16892e-05
4.65341e-07
1.2242e-05
-1.27769e-05
5.34985e-07
1.29417e-05
-1.27301e-05
-2.11546e-07
1.32252e-05
-1.53689e-05
2.14374e-06
1.78202e-05
-1.76862e-05
-1.3392e-07
1.45936e-05
-1.01797e-05
-4.41385e-06
6.37525e-06
-4.87031e-06
-1.50494e-06
7.27241e-06
-1.37358e-05
6.46341e-06
1.98386e-05
-2.02511e-05
4.12501e-07
1.61722e-05
-1.06319e-05
-5.54027e-06
5.36559e-06
-1.37967e-06
-3.98592e-06
-4.23959e-06
5.8235e-06
-1.58391e-06
2.72111e-06
-3.21374e-06
-1.62117e-06
2.1138e-06
3.87484e-06
-4.97379e-06
-1.72853e-06
2.82748e-06
6.4159e-06
-7.79025e-06
-1.90004e-06
3.27439e-06
8.43645e-06
-7.95055e-06
8.14601e-07
-1.3005e-06
6.72019e-06
-5.66156e-06
1.46084e-06
-2.51947e-06
5.17568e-06
-5.12117e-06
-1.79336e-07
1.24823e-07
5.34073e-06
-5.73597e-06
-1.2383e-06
1.63355e-06
6.24621e-06
-6.83714e-06
-1.46557e-06
2.0565e-06
7.47019e-06
-8.10388e-06
-1.2358e-06
1.86948e-06
8.70034e-06
-9.23848e-06
-1.00255e-06
1.54069e-06
9.71552e-06
-1.01418e-05
-8.89383e-07
1.3157e-06
1.05355e-05
-1.09285e-05
-1.10701e-06
1.50002e-06
1.14146e-05
-1.22308e-05
-1.5613e-06
2.37747e-06
1.37248e-05
-1.59218e-05
-1.63834e-06
3.83538e-06
1.80165e-05
-1.89645e-05
-3.73507e-06
4.68298e-06
1.86303e-05
-1.78975e-05
1.77168e-06
-2.50444e-06
1.73535e-05
-1.72295e-05
6.89059e-06
-7.01456e-06
1.79586e-05
-1.99505e-05
-6.80225e-08
2.05998e-06
2.19993e-05
-2.16657e-05
-1.03408e-05
1.00072e-05
1.84623e-05
-1.4682e-05
3.22408e-06
-7.00437e-06
1.07615e-05
-6.97937e-06
1.0235e-05
-1.40171e-05
4.25538e-06
-2.11327e-06
7.18942e-06
-9.33154e-06
-7.22011e-06
8.43238e-06
-1.21227e-06
2.20307e-06
-2.80856e-06
-2.6096e-06
3.21508e-06
3.91645e-06
-5.79837e-06
-4.27408e-06
6.15599e-06
8.21562e-06
-1.04005e-05
-5.16673e-06
7.35163e-06
1.13163e-05
-1.0512e-05
1.9486e-06
-2.75284e-06
8.59874e-06
-6.79827e-06
3.9682e-06
-5.76867e-06
5.94758e-06
-5.84604e-06
-2.40319e-08
-7.75062e-08
6.036e-06
-6.42226e-06
-2.01276e-06
2.39902e-06
6.9086e-06
-7.441e-06
-2.60366e-06
3.13606e-06
7.9862e-06
-8.51725e-06
-2.45706e-06
2.98811e-06
9.01107e-06
-9.45475e-06
-2.04375e-06
2.48744e-06
9.84617e-06
-1.01893e-05
-1.70378e-06
2.04689e-06
1.04865e-05
-1.07256e-05
-1.76196e-06
2.00102e-06
1.08751e-05
-1.09127e-05
-2.66884e-06
2.70646e-06
1.08708e-05
-1.08086e-05
-5.01576e-06
4.95357e-06
1.06717e-05
-1.03811e-05
-5.1975e-06
4.90689e-06
1.01868e-05
-1.05821e-05
2.53979e-06
-2.14453e-06
1.18446e-05
-1.39024e-05
5.51586e-06
-3.45808e-06
1.58352e-05
-1.62141e-05
-3.32422e-06
3.70313e-06
1.44724e-05
-1.12257e-05
-7.49842e-06
4.25166e-06
7.89427e-06
-5.24363e-06
1.03629e-05
-1.30135e-05
3.39994e-06
-2.55188e-06
1.63938e-05
-1.72418e-05
1.88053e-06
-1.08987e-06
1.06566e-05
-1.14473e-05
-9.4605e-06
1.02784e-05
-8.17921e-07
1.90503e-06
-2.9454e-06
-4.02736e-06
5.06772e-06
4.52749e-06
-6.58056e-06
-8.31295e-06
1.0366e-05
8.59976e-06
-9.84656e-06
-9.31901e-06
1.05658e-05
9.9421e-06
-9.13305e-06
3.60103e-06
-4.41008e-06
8.08113e-06
-7.11857e-06
7.48982e-06
-8.45237e-06
6.46769e-06
-6.51724e-06
1.41427e-07
-9.18725e-08
6.83141e-06
-7.2283e-06
-2.78407e-06
3.18096e-06
7.67608e-06
-8.13798e-06
-3.64011e-06
4.10201e-06
8.58596e-06
-9.002e-06
-3.46156e-06
3.8776e-06
9.37658e-06
-9.7074e-06
-2.87251e-06
3.20334e-06
9.99658e-06
-1.02473e-05
-2.34225e-06
2.59294e-06
1.04611e-05
-1.06352e-05
-2.21504e-06
2.38914e-06
1.07569e-05
-1.07789e-05
-2.72223e-06
2.7443e-06
1.05739e-05
-9.96306e-06
-4.31121e-06
3.7004e-06
8.95573e-06
-7.99203e-06
-4.01514e-06
3.05144e-06
7.65551e-06
-7.98669e-06
1.69237e-06
-1.36119e-06
8.51786e-06
-8.84273e-06
2.01984e-06
-1.69497e-06
8.81487e-06
-7.78305e-06
-3.38165e-06
2.34983e-06
5.31909e-06
-2.39455e-06
-9.40852e-07
-1.98369e-06
4.51314e-07
1.01631e-07
1.45866e-05
-1.51395e-05
4.33911e-07
-9.73511e-07
1.70987e-05
-1.65591e-05
1.04101e-06
-6.67976e-07
1.1942e-05
-1.2315e-05
-1.08211e-05
1.09801e-05
-1.5897e-07
1.45052e-06
-2.56393e-06
-6.23446e-06
7.34788e-06
3.67933e-06
-4.52942e-06
-1.19293e-05
1.27794e-05
4.85756e-06
-4.50308e-06
-1.09291e-05
1.05747e-05
3.72833e-06
-2.85792e-06
5.23685e-06
-6.10727e-06
3.26235e-06
-4.91792e-06
8.14827e-06
-6.4927e-06
6.16077e-06
-6.86758e-06
-2.10983e-07
9.17788e-07
7.50263e-06
-7.99335e-06
-3.61472e-06
4.10544e-06
8.41448e-06
-8.79288e-06
-4.5201e-06
4.8985e-06
9.13375e-06
-9.43594e-06
-4.23587e-06
4.53806e-06
9.69993e-06
-9.92871e-06
-3.48213e-06
3.71091e-06
1.01269e-05
-1.02981e-05
-2.80218e-06
2.97341e-06
1.04418e-05
-1.05512e-05
-2.52661e-06
2.63599e-06
1.06109e-05
-1.05938e-05
-2.74573e-06
2.72859e-06
1.04529e-05
-1.01335e-05
-3.26953e-06
2.95015e-06
9.65324e-06
-9.19336e-06
-2.35818e-06
1.89831e-06
8.98961e-06
-9.06048e-06
1.18317e-06
-1.11229e-06
9.09375e-06
-8.62384e-06
2.04134e-06
-2.51125e-06
7.24426e-06
-4.95392e-06
-4.30192e-07
-1.86014e-06
2.37635e-06
-4.44642e-07
4.2529e-06
-6.18461e-06
-3.32201e-07
6.50788e-08
1.49898e-05
-1.47226e-05
4.36585e-07
-7.02765e-07
1.60381e-05
-1.57719e-05
6.8941e-07
-3.65332e-07
1.26577e-05
-1.29817e-05
-1.05413e-05
9.36691e-06
1.17441e-06
5.70028e-08
-6.7914e-07
-8.23893e-06
8.86107e-06
7.60231e-07
-2.17956e-07
-1.28764e-05
1.23341e-05
-8.65511e-07
2.07236e-06
-9.75332e-06
8.54647e-06
-3.17912e-06
3.41794e-06
6.76482e-06
-7.00363e-06
-1.44039e-06
-2.33691e-06
3.60234e-06
1.74948e-07
5.53367e-06
-7.14133e-06
-2.11187e-06
3.71953e-06
8.0357e-06
-8.62743e-06
-4.65673e-06
5.24846e-06
9.03518e-06
-9.34602e-06
-5.24152e-06
5.55236e-06
9.59629e-06
-9.80191e-06
-4.78859e-06
4.99421e-06
9.97273e-06
-1.0117e-05
-3.8941e-06
4.03833e-06
1.02415e-05
-1.03505e-05
-3.11076e-06
3.21975e-06
1.04436e-05
-1.05146e-05
-2.72379e-06
2.79487e-06
1.05513e-05
-1.05354e-05
-2.70766e-06
2.69179e-06
1.04434e-05
-1.02578e-05
-2.70042e-06
2.51482e-06
1.00004e-05
-9.75162e-06
-1.56316e-06
1.3144e-06
9.59288e-06
-9.50174e-06
1.13824e-06
-1.22938e-06
9.31963e-06
-8.82155e-06
2.96348e-06
-3.46156e-06
7.80564e-06
-6.22029e-06
3.78339e-06
-5.36874e-06
4.3249e-06
-2.58526e-06
8.06919e-06
-9.80883e-06
1.47622e-06
-8.82275e-07
1.48624e-05
-1.54564e-05
5.12937e-07
-2.41456e-07
1.58099e-05
-1.60814e-05
6.33576e-08
1.04475e-07
1.3254e-05
-1.34218e-05
-7.45802e-06
4.9014e-06
2.55662e-06
-2.60488e-06
2.55372e-06
-9.25549e-06
9.30665e-06
-2.96547e-06
4.10316e-06
-1.12542e-05
1.01165e-05
-5.40103e-06
7.07358e-06
-7.17089e-06
5.49834e-06
-7.8694e-06
5.30579e-06
6.32976e-06
-3.76616e-06
-5.10045e-07
-3.6473e-06
-4.58779e-06
8.74513e-06
6.35454e-06
-7.79972e-06
-5.43404e-06
6.87923e-06
8.57477e-06
-9.10578e-06
-5.83825e-06
6.36925e-06
9.4723e-06
-9.72932e-06
-5.8352e-06
6.09221e-06
9.91724e-06
-1.0059e-05
-5.16384e-06
5.30564e-06
1.01687e-05
-1.02571e-05
-4.15123e-06
4.23956e-06
1.03328e-05
-1.04019e-05
-3.30583e-06
3.37491e-06
1.04661e-05
-1.05206e-05
-2.85414e-06
2.90858e-06
1.05561e-05
-1.0563e-05
-2.68483e-06
2.69174e-06
1.05329e-05
-1.04626e-05
-2.38935e-06
2.31905e-06
1.03638e-05
-1.02659e-05
-1.14462e-06
1.04674e-06
1.01871e-05
-1.00817e-05
1.34343e-06
-1.44884e-06
9.83832e-06
-9.31463e-06
3.99237e-06
-4.51607e-06
8.39422e-06
-7.06011e-06
6.8059e-06
-8.14e-06
5.44486e-06
-3.78729e-06
1.14707e-05
-1.31283e-05
2.34124e-06
-1.18048e-06
1.63478e-05
-1.75086e-05
2.48316e-07
4.08939e-07
1.65512e-05
-1.72085e-05
-7.22604e-07
5.41853e-07
1.34158e-05
-1.3235e-05
-2.08341e-06
-1.61235e-06
3.69576e-06
-5.0416e-06
6.18633e-06
-8.89788e-06
7.75316e-06
-7.65091e-06
8.96595e-06
-9.10148e-06
7.78645e-06
-9.84235e-06
8.07095e-06
-3.82808e-06
5.59949e-06
-1.54965e-06
-4.33588e-06
-2.3094e-06
8.19494e-06
6.3907e-06
-7.3108e-06
-1.08515e-05
1.17716e-05
8.08393e-06
-8.74437e-06
-7.89262e-06
8.55307e-06
9.21662e-06
-9.53908e-06
-6.79769e-06
7.12015e-06
9.78005e-06
-9.96288e-06
-6.32132e-06
6.50415e-06
1.01035e-05
-1.02087e-05
-5.42827e-06
5.5335e-06
1.02828e-05
-1.03328e-05
-4.30765e-06
4.35766e-06
1.03687e-05
-1.04027e-05
-3.42672e-06
3.46069e-06
1.04432e-05
-1.04908e-05
-2.96175e-06
3.00931e-06
1.05404e-05
-1.05887e-05
-2.72075e-06
2.76905e-06
1.06369e-05
-1.06856e-05
-2.30585e-06
2.35459e-06
1.07346e-05
-1.07864e-05
-1.01939e-06
1.07113e-06
1.08274e-05
-1.08055e-05
1.52309e-06
-1.54501e-06
1.06233e-05
-1.01712e-05
5.00947e-06
-5.46156e-06
9.35653e-06
-8.1434e-06
9.39864e-06
-1.06118e-05
6.58606e-06
-4.82222e-06
1.48266e-05
-1.65905e-05
3.02692e-06
-1.35717e-06
1.89332e-05
-2.0603e-05
-7.2633e-08
1.22168e-06
1.80515e-05
-1.92006e-05
-1.8315e-06
1.54195e-06
1.2955e-05
-1.26654e-05
1.17531e-05
-1.54503e-05
3.69721e-06
-9.72581e-06
-2.43193e-06
1.21577e-05
2.10137e-05
-3.42523e-05
1.32386e-05
3.79812e-05
-3.74856e-05
-4.95578e-07
3.62892e-05
-3.45997e-05
-1.68947e-06
3.24919e-05
-2.94612e-05
-3.03076e-06
1.99848e-05
-7.17864e-06
-1.28062e-05
3.1598e-06
-6.28284e-06
3.12304e-06
1.12633e-05
-1.44565e-05
3.19319e-06
1.10734e-05
5.45195e-07
-1.16186e-05
-7.58047e-06
8.64909e-06
-1.06862e-06
-9.58921e-06
-9.44955e-07
1.05342e-05
2.93256e-05
-6.16141e-05
3.22885e-05
7.54967e-05
-6.76879e-05
-7.80882e-06
5.26184e-05
-3.29582e-05
-1.96602e-05
1.70183e-05
-1.71102e-05
9.19423e-08
9.11733e-06
-3.67435e-06
-5.44298e-06
7.71943e-06
-1.49067e-05
7.18722e-06
1.66953e-05
-8.90074e-06
-7.79456e-06
6.54702e-06
1.11583e-05
-1.77053e-05
2.37454e-05
-3.7033e-05
-3.03645e-05
4.36521e-05
4.17795e-05
-4.11064e-05
-1.6603e-05
1.59299e-05
3.96817e-05
-3.80211e-05
4.39968e-06
-6.06026e-06
3.764e-05
-3.5724e-05
3.97025e-06
-5.88627e-06
2.77529e-05
-1.21189e-05
6.99554e-06
-2.26295e-05
-1.06022e-06
5.56987e-06
2.26555e-05
-2.71651e-05
-6.89863e-06
5.8343e-06
-5.21168e-06
6.276e-06
-2.82913e-06
1.03261e-06
-5.54553e-06
7.34204e-06
-4.48356e-06
7.91319e-06
2.12189e-05
-2.46485e-05
-7.20667e-07
-1.99786e-05
-5.01585e-06
2.57151e-05
5.15252e-05
-7.83406e-05
-4.22277e-05
6.90431e-05
8.45541e-05
-6.70864e-05
-4.0716e-05
2.32483e-05
4.60992e-05
-3.81662e-05
2.51495e-05
-3.30824e-05
2.49335e-05
-1.22813e-05
3.86633e-05
-5.13155e-05
3.55276e-06
3.02294e-06
-6.39351e-06
-1.82197e-07
3.57592e-06
-2.23902e-05
3.47902e-06
1.53353e-05
3.15029e-05
-3.38453e-05
-1.19735e-05
1.43159e-05
3.14827e-05
-1.85772e-05
1.87569e-05
-3.16624e-05
-2.72874e-05
3.50742e-05
-7.78677e-06
1.73754e-05
-1.19763e-05
-4.84371e-05
4.3038e-05
5.29202e-06
3.4458e-06
-8.58364e-06
-1.54178e-07
-8.99351e-06
1.45969e-05
7.83871e-06
-1.34421e-05
-2.22986e-05
2.74326e-05
6.64943e-06
-1.17834e-05
-3.0388e-05
3.15586e-05
3.58663e-05
-3.70369e-05
-2.6159e-05
2.16296e-05
2.76958e-05
-2.31665e-05
-1.45591e-05
8.83127e-06
-9.15167e-06
1.48795e-05
-5.89091e-06
3.74047e-06
-9.01327e-06
1.11637e-05
-1.28111e-06
-1.16799e-05
1.91907e-05
-6.22976e-06
3.70152e-05
-6.53083e-05
-5.41268e-05
8.242e-05
8.30508e-05
-7.40121e-05
-7.93389e-05
7.03003e-05
5.27448e-05
-4.28813e-05
-5.08269e-06
-4.7808e-06
3.30069e-05
-1.70409e-05
4.23482e-05
-5.83141e-05
9.10083e-06
-4.12982e-07
5.81541e-05
-6.6842e-05
2.43978e-06
3.27235e-07
4.29639e-06
-7.06341e-06
-1.33564e-05
2.82786e-05
-1.46699e-05
-2.5233e-07
-3.2338e-05
2.01554e-05
-2.87329e-05
4.09155e-05
-8.64456e-07
-6.64518e-06
4.19003e-05
-3.43907e-05
-3.46625e-05
2.66294e-05
8.03309e-06
-4.63032e-06
1.79052e-05
-2.55379e-05
1.2263e-05
-2.61942e-05
2.68536e-05
4.28357e-06
-4.94296e-06
-2.85506e-05
2.84922e-05
8.76865e-06
-8.71023e-06
-3.07384e-05
3.73617e-05
1.51803e-05
-2.18037e-05
-4.17807e-05
4.16959e-05
3.67138e-05
-3.66291e-05
-3.72217e-05
3.11441e-05
1.72456e-05
-1.11681e-05
-2.10568e-05
9.79779e-06
-2.36472e-05
3.49062e-05
-1.80127e-06
-3.33856e-06
-1.42088e-05
1.93486e-05
1.33615e-05
-3.6834e-05
-1.33785e-05
3.68511e-05
6.29756e-05
-7.80246e-05
-0.000105488
0.000120537
6.71511e-05
-4.37752e-05
-4.84789e-05
2.51029e-05
1.55848e-05
1.3918e-05
3.03276e-05
-5.98304e-05
-2.59161e-05
3.20202e-05
5.7952e-05
-6.40561e-05
-2.49141e-05
1.49939e-05
7.50432e-05
-6.5123e-05
-1.16153e-05
1.02314e-05
8.55215e-06
-7.16824e-06
-1.39185e-05
2.39692e-05
1.64828e-05
-2.65335e-05
-4.20282e-05
5.03629e-05
-4.16069e-05
3.32722e-05
-3.97053e-05
1.44565e-05
1.24641e-05
1.27847e-05
-1.82437e-05
1.30494e-05
5.19421e-06
-1.32805e-05
1.71368e-05
-7.09123e-06
3.2349e-06
-2.15488e-05
2.40036e-05
8.74403e-06
-1.11988e-05
-2.39913e-05
3.07885e-05
1.01358e-05
-1.69331e-05
-3.67096e-05
4.23551e-05
2.70071e-05
-3.26526e-05
-4.41529e-05
4.37678e-05
3.63074e-05
-3.59223e-05
-4.21909e-05
3.51675e-05
5.15031e-06
1.87304e-06
-2.37053e-05
9.35286e-06
-4.80748e-05
6.24272e-05
2.46207e-06
-1.25452e-05
-2.704e-05
3.71231e-05
3.02564e-05
-5.62071e-05
-6.20866e-05
8.80373e-05
7.40972e-05
-6.45164e-05
-0.000124771
0.00011519
4.07587e-05
-1.17927e-05
-1.03818e-06
-2.79277e-05
-1.61406e-05
3.06009e-05
8.06413e-05
-9.51016e-05
-3.72502e-05
4.0471e-05
6.7749e-05
-7.09699e-05
-4.06512e-05
3.28681e-05
5.30659e-05
-4.52828e-05
-3.01427e-05
3.56965e-05
7.13191e-06
-1.26857e-05
-3.45302e-05
3.81074e-05
3.30019e-05
-3.65792e-05
-3.67572e-05
4.18346e-05
-2.37381e-05
1.86607e-05
-3.74092e-05
1.98177e-05
-3.5262e-05
5.28536e-05
-8.55001e-06
5.19399e-06
3.35602e-06
-7.90703e-06
1.06863e-05
3.34891e-06
-6.12823e-06
-1.5167e-05
2.19246e-05
1.23745e-05
-1.9132e-05
-2.9577e-05
3.74504e-05
2.34218e-05
-3.12953e-05
-4.13123e-05
4.21705e-05
3.56648e-05
-3.65231e-05
-4.51175e-05
4.92391e-05
3.7236e-05
-4.13577e-05
-4.78694e-05
3.10274e-05
-1.28436e-05
2.96855e-05
-1.42399e-05
3.41431e-06
-7.66146e-05
8.74402e-05
7.2687e-06
-2.02051e-05
-4.92317e-05
6.2168e-05
4.08878e-05
-6.18765e-05
-0.000112478
0.000133467
6.16417e-05
-3.75753e-05
-9.39848e-05
6.99183e-05
1.61553e-05
9.59801e-06
5.7919e-05
-8.36723e-05
-1.74413e-05
1.99283e-05
0.000103159
-0.000105646
-2.52727e-05
3.44629e-05
7.58533e-05
-8.50435e-05
-4.14792e-05
4.1173e-05
4.12011e-05
-4.08949e-05
-3.90563e-05
3.75668e-05
1.48767e-05
-1.33872e-05
-4.66249e-05
4.69759e-05
4.17244e-05
-4.20755e-05
-4.05753e-05
3.0304e-05
-2.32733e-05
3.35446e-05
-2.1119e-05
1.23474e-05
-6.61799e-05
7.49515e-05
-5.63046e-06
6.04328e-06
-4.12814e-07
-1.58028e-05
2.51498e-05
1.23616e-05
-2.17086e-05
-2.73483e-05
3.23867e-05
2.42902e-05
-2.93286e-05
-3.68132e-05
3.76486e-05
3.54714e-05
-3.63068e-05
-4.23898e-05
5.63269e-05
4.11137e-05
-5.50508e-05
-6.14024e-05
4.57787e-05
4.00854e-05
-2.44616e-05
-2.19386e-05
-5.11808e-06
-5.6659e-05
8.37157e-05
8.03926e-06
-1.68168e-06
-8.20868e-05
7.57292e-05
1.15309e-05
-2.22018e-05
-7.46483e-05
8.53191e-05
3.71398e-05
-4.77355e-05
-0.000149631
0.000160227
4.0042e-05
-2.82044e-05
-5.08509e-05
3.90134e-05
4.72648e-06
-1.57256e-06
9.91398e-05
-0.000102294
2.11717e-05
-2.51645e-05
0.000102766
-9.87736e-05
1.1878e-05
7.78372e-06
9.94844e-05
-0.000119146
-2.12627e-05
2.32945e-05
4.35031e-05
-4.5535e-05
-2.09435e-05
2.13229e-05
1.14921e-05
-1.18716e-05
-2.96632e-05
1.23095e-05
3.18087e-05
-1.44551e-05
3.20584e-06
-9.89585e-06
-4.00768e-05
4.67668e-05
3.58041e-06
2.16158e-06
-7.69782e-05
7.12362e-05
-2.90227e-05
8.15803e-06
2.08647e-05
-2.07656e-05
2.62933e-05
2.98582e-05
-3.53859e-05
-3.1096e-05
3.28521e-05
3.42535e-05
-3.60096e-05
-3.31085e-05
4.44211e-05
3.86404e-05
-4.99531e-05
-7.21957e-05
7.74336e-05
7.36243e-05
-7.88621e-05
-4.55966e-05
6.48398e-06
-8.76896e-06
4.78815e-05
1.25779e-05
-1.13112e-05
-9.81116e-05
9.68449e-05
9.01088e-06
-1.24856e-05
-7.27732e-05
7.62479e-05
1.38305e-05
-1.93167e-05
-9.32992e-05
9.87854e-05
2.50015e-05
-2.59102e-05
-0.00016501
0.000165919
2.06985e-05
-5.1585e-06
-2.18876e-05
6.34765e-06
-1.51345e-06
-2.52332e-05
8.79077e-05
-6.1161e-05
4.91116e-05
-3.88578e-05
0.00010008
-0.000110334
1.9155e-05
2.05746e-07
0.000141361
-0.000160722
-1.9612e-05
3.16362e-05
4.7745e-05
-5.97692e-05
-2.53444e-05
1.10147e-05
9.93333e-06
4.39633e-06
2.00731e-05
-3.09571e-05
-4.80346e-06
1.56875e-05
3.14531e-05
-2.70509e-05
-4.75712e-05
4.3169e-05
1.74235e-05
-5.66021e-06
-5.98876e-05
4.81242e-05
-6.07557e-06
1.85226e-05
-1.24471e-05
1.23594e-05
-1.56627e-05
-6.75094e-06
1.00542e-05
1.89478e-05
-2.17985e-05
-8.76537e-06
1.16161e-05
2.26575e-05
-2.36519e-05
-1.01335e-05
1.11279e-05
2.42967e-05
-2.27363e-05
-1.01783e-05
8.61794e-06
1.99121e-05
-1.71306e-05
-1.19547e-05
9.1732e-06
1.56968e-05
-1.61333e-05
-9.09954e-06
9.53606e-06
1.72804e-05
-1.84752e-05
-7.56903e-06
8.76389e-06
1.95748e-05
-2.0542e-05
-6.68407e-06
7.65134e-06
2.13224e-05
-2.18977e-05
-5.62284e-06
6.19806e-06
2.22956e-05
-2.25504e-05
-4.38421e-06
4.63898e-06
2.27003e-05
-2.27923e-05
-3.45067e-06
3.5427e-06
2.28638e-05
-2.29038e-05
-3.02109e-06
3.06109e-06
2.28968e-05
-2.2887e-05
-2.81551e-06
2.80575e-06
2.29677e-05
-2.32079e-05
-2.45732e-06
2.69756e-06
2.36105e-05
-2.41238e-05
-1.20723e-06
1.72055e-06
2.46784e-05
-2.51248e-05
1.49656e-06
-1.0501e-06
2.52147e-05
-2.47214e-05
5.85734e-06
-6.3506e-06
2.34477e-05
-2.1217e-05
1.17774e-05
-1.40082e-05
1.78895e-05
-1.34274e-05
1.84231e-05
-2.28852e-05
7.84891e-06
-1.35078e-06
2.26229e-05
-2.9121e-05
-5.40273e-06
1.14734e-05
2.09655e-05
-2.70361e-05
-1.57359e-05
1.81214e-05
1.25204e-05
-1.49059e-05
-4.12045e-05
6.23037e-05
-2.10992e-05
4.54332e-05
-5.7014e-05
-3.16496e-05
4.32304e-05
6.89646e-05
-7.90042e-05
-1.09993e-05
2.10389e-05
8.69826e-05
-9.04966e-05
-1.01777e-05
1.36917e-05
8.80207e-05
-7.84773e-05
-6.75168e-06
-2.79172e-06
6.74799e-05
-5.82654e-05
-8.17265e-07
-8.39729e-06
4.52639e-05
-3.76622e-05
-7.50312e-06
-9.86028e-08
3.2066e-05
-2.73409e-05
-8.36908e-06
3.64394e-06
2.40413e-05
-2.21021e-05
-7.93436e-06
5.99513e-06
2.09271e-05
-2.01667e-05
-6.61559e-06
5.85519e-06
1.97309e-05
-1.95101e-05
-5.11598e-06
4.89525e-06
1.94087e-05
-1.94221e-05
-4.09027e-06
4.10363e-06
1.96344e-05
-2.01216e-05
-3.46268e-06
3.94983e-06
2.08825e-05
-2.18705e-05
-3.21918e-06
4.20722e-06
2.30349e-05
-2.44249e-05
-3.35044e-06
4.7405e-06
2.6124e-05
-2.80662e-05
-2.58547e-06
4.52767e-06
3.00964e-05
-3.20056e-05
6.33945e-08
1.84578e-06
3.35945e-05
-3.4486e-05
6.22123e-06
-5.32978e-06
3.41648e-05
-3.19251e-05
1.60739e-05
-1.83136e-05
2.68493e-05
-1.91971e-05
2.90596e-05
-3.67118e-05
1.14859e-05
-7.1972e-06
3.82388e-05
-4.25275e-05
8.41431e-06
-1.29539e-05
3.26597e-05
-2.81201e-05
1.56847e-05
-1.36045e-05
1.77999e-05
-1.98801e-05
-8.08046e-05
9.70992e-05
-1.62946e-05
3.2877e-05
-4.02383e-05
-5.45592e-05
6.19205e-05
4.56369e-05
-4.77799e-05
-2.83242e-05
3.04672e-05
4.8656e-05
-5.18067e-05
-2.12911e-05
2.44418e-05
6.08258e-05
-7.70395e-05
-4.0258e-06
2.02396e-05
9.50532e-05
-0.000109363
1.2878e-05
1.4314e-06
0.000120201
-0.000123963
1.15766e-05
-7.81451e-06
0.000122026
-0.000111287
7.80382e-06
-1.85426e-05
9.47012e-05
-7.90032e-05
-2.21659e-07
-1.54764e-05
6.82248e-05
-6.01965e-05
-2.15236e-06
-5.87599e-06
5.37266e-05
-4.78424e-05
-2.24582e-06
-3.63831e-06
4.24892e-05
-3.71509e-05
-2.3251e-06
-3.01312e-06
3.1503e-05
-2.63992e-05
-3.49182e-06
-1.61193e-06
2.25672e-05
-1.97855e-05
-4.62295e-06
1.84125e-06
1.81303e-05
-1.80809e-05
-6.58661e-06
6.53722e-06
2.01518e-05
-2.40988e-05
-7.7099e-06
1.16569e-05
2.90786e-05
-3.47306e-05
-5.3662e-06
1.10182e-05
4.03206e-05
-4.50871e-05
3.31062e-06
1.45591e-06
4.82047e-05
-5.04901e-05
2.01864e-05
-1.7901e-05
5.76162e-05
-7.46542e-05
3.90837e-05
-2.20457e-05
9.58793e-05
-0.000112766
2.99704e-05
-1.30834e-05
0.000121869
-0.000125412
1.37469e-05
-1.0204e-05
0.000126562
-0.000127877
1.21039e-05
-1.07893e-05
-0.000110454
0.000119104
-8.64979e-06
2.50281e-05
-3.32045e-05
-6.92257e-05
7.74022e-05
3.93267e-05
-4.11623e-05
-3.18417e-05
3.36773e-05
3.93586e-05
-3.63611e-05
-2.27793e-05
1.97818e-05
3.51727e-05
-3.78608e-05
-3.00843e-05
3.27724e-05
4.57257e-05
-5.8892e-05
-2.40823e-05
3.72486e-05
7.59681e-05
-9.54589e-05
-1.4337e-05
3.38278e-05
0.000116921
-0.000139607
4.60678e-07
2.22248e-05
0.000159033
-0.000172585
5.15312e-06
8.39856e-06
0.000181167
-0.000188224
6.48402e-06
5.73025e-07
0.00019628
-0.00020782
1.64266e-05
-4.88654e-06
0.000224524
-0.000243477
3.17257e-05
-1.27732e-05
0.000258535
-0.00026274
2.34319e-05
-1.92267e-05
0.000250895
-0.000224567
8.26703e-06
-3.45955e-05
0.000192528
-0.000163032
-8.40299e-08
-2.94121e-05
0.00013863
-0.000112897
-1.28251e-05
-1.29071e-05
9.22123e-05
-7.98427e-05
-1.28215e-05
4.51881e-07
7.76016e-05
-8.83873e-05
-6.12637e-06
1.6912e-05
0.000124319
-0.000179818
-4.41175e-06
5.99109e-05
0.000222301
-0.000238031
-8.80226e-06
2.45322e-05
0.000238357
-0.000229512
1.17733e-05
-2.06182e-05
0.000210786
-0.000190352
1.81884e-05
-3.86219e-05
0.000175797
-0.000171003
1.19614e-05
-1.67558e-05
-0.00012161
0.000117491
4.11842e-06
7.87924e-06
-1.15358e-05
-8.43469e-05
8.80035e-05
1.55006e-05
-1.90772e-05
-3.61195e-05
3.96961e-05
2.20482e-05
-2.42076e-05
-1.86695e-05
2.08288e-05
2.5623e-05
-2.63711e-05
-3.27763e-05
3.35243e-05
2.69039e-05
-2.81906e-05
-4.22974e-05
4.35841e-05
3.04763e-05
-3.38493e-05
-4.42126e-05
4.75856e-05
3.84486e-05
-4.4178e-05
-3.5196e-05
4.09254e-05
5.09891e-05
-5.86778e-05
-1.65474e-05
2.42361e-05
6.64532e-05
-7.34468e-05
-7.15742e-06
1.4151e-05
7.98579e-05
-8.75909e-05
-4.96114e-06
1.26941e-05
9.89277e-05
-0.000114749
-4.41375e-06
2.02347e-05
0.000134604
-0.00015632
3.32451e-06
1.83911e-05
0.000175077
-0.000183807
3.66526e-05
-2.79224e-05
0.000178969
-0.000160747
6.77354e-05
-8.59576e-05
0.000132236
-0.000101784
2.53427e-05
-5.57938e-05
0.000103447
-0.000149938
-4.85009e-06
5.13413e-05
0.000202276
-0.000256603
-6.70329e-05
0.00012136
0.000292997
-0.000291675
-0.000101546
0.000100225
0.000276575
-0.000256588
-1.93765e-05
-6.10503e-07
0.000234392
-0.00021701
4.43747e-05
-6.1756e-05
0.000204793
-0.000192728
6.82163e-05
-8.02815e-05
0.000177026
-0.000153265
5.25989e-05
-7.63596e-05
-0.000108684
9.66972e-05
1.19864e-05
-7.5691e-06
7.46635e-06
-8.87645e-05
8.88672e-05
-7.49103e-06
3.57171e-06
-4.38497e-05
4.7769e-05
3.20692e-06
-1.00351e-05
-2.6165e-05
3.29932e-05
1.53367e-05
-1.9053e-05
-3.5971e-05
3.96873e-05
2.13977e-05
-2.25966e-05
-4.41263e-05
4.53253e-05
2.32614e-05
-2.41058e-05
-4.84366e-05
4.9281e-05
2.54699e-05
-2.76363e-05
-4.33432e-05
4.55096e-05
3.12431e-05
-3.67905e-05
-3.04329e-05
3.59803e-05
4.40141e-05
-5.22784e-05
-2.20183e-05
3.02826e-05
6.11268e-05
-6.98094e-05
-2.15967e-05
3.02794e-05
7.74575e-05
-8.41265e-05
-3.13326e-05
3.80015e-05
9.06502e-05
-9.77852e-05
-3.29889e-05
4.01238e-05
0.000106772
-0.000120041
1.38821e-05
-6.1332e-07
0.000140548
-0.000167123
6.86768e-05
-4.21011e-05
0.000192281
-0.000216338
4.34777e-05
-1.94206e-05
0.000227017
-0.000227093
-6.68269e-05
6.69035e-05
0.000264962
-0.000293991
-0.000153375
0.000182404
0.000284882
-0.000277512
-7.30866e-05
6.5716e-05
0.000268409
-0.000243939
1.95344e-05
-4.40043e-05
0.000211298
-0.000186547
7.66892e-05
-0.00010144
0.000177257
-0.000176245
8.3592e-05
-8.4604e-05
0.000176229
-0.000176038
7.99614e-05
-8.01521e-05
-8.31744e-05
7.16867e-05
1.14877e-05
-1.6682e-05
1.4273e-05
-9.04525e-05
9.28614e-05
-1.08538e-05
6.79353e-06
-5.14082e-05
5.54684e-05
-1.54062e-06
-4.36725e-06
-3.95731e-05
4.5481e-05
9.80889e-06
-1.42085e-05
-4.39632e-05
4.83628e-05
1.78928e-05
-2.08476e-05
-4.74866e-05
5.04414e-05
2.31448e-05
-2.53057e-05
-5.07706e-05
5.29315e-05
2.79928e-05
-3.16351e-05
-4.85022e-05
5.21446e-05
3.64427e-05
-4.24234e-05
-4.16839e-05
4.76646e-05
4.9325e-05
-5.68728e-05
-3.82451e-05
4.57929e-05
6.48987e-05
-7.3034e-05
-3.85816e-05
4.6717e-05
8.06374e-05
-8.71515e-05
-4.33652e-05
4.98793e-05
9.2602e-05
-9.81718e-05
-4.45243e-05
5.00941e-05
0.000106399
-0.000119111
-1.08082e-05
2.35205e-05
0.000133167
-0.000141989
2.82357e-05
-1.94142e-05
0.000144351
-0.000142107
9.5695e-06
-1.1814e-05
0.00014075
-0.000142775
-7.48508e-05
7.68766e-05
0.00014253
-0.000181182
-0.000226816
0.000265469
0.000210656
-0.000212161
-6.94403e-05
7.09453e-05
0.000191532
-0.00016532
7.24135e-05
-9.86254e-05
0.000160917
-0.000164488
0.000118554
-0.000114983
0.000162634
-0.000167553
8.26524e-05
-7.77333e-05
0.000175121
-0.000182198
7.80777e-05
-7.10014e-05
-6.57534e-05
6.54776e-05
2.75841e-07
-1.38616e-05
1.53836e-05
-9.403e-05
9.2508e-05
-1.23958e-05
7.86434e-06
-6.00526e-05
6.45841e-05
-2.68052e-06
-2.91618e-06
-5.10956e-05
5.66923e-05
7.94196e-06
-1.22985e-05
-5.27579e-05
5.71144e-05
1.63164e-05
-2.00772e-05
-5.39216e-05
5.76825e-05
2.35607e-05
-2.68046e-05
-5.5692e-05
5.89359e-05
3.01364e-05
-3.40735e-05
-5.60369e-05
5.9974e-05
3.89336e-05
-4.4665e-05
-5.36587e-05
5.93901e-05
5.10424e-05
-5.79026e-05
-5.30054e-05
5.98656e-05
6.51864e-05
-7.29252e-05
-5.47132e-05
6.2452e-05
8.12238e-05
-9.02107e-05
-5.79874e-05
6.69743e-05
0.000100171
-0.000111976
-5.89299e-05
7.07345e-05
0.00012654
-0.000141137
-3.7936e-05
5.25338e-05
0.000146352
-0.000136585
1.79871e-05
-2.77547e-05
0.000127325
-0.000128108
2.38162e-05
-2.3033e-05
0.000131218
-0.000133436
-8.35334e-05
8.57516e-05
0.000127918
-0.000107232
-0.000265508
0.000244822
9.62464e-05
-7.08349e-05
-6.57973e-05
4.03857e-05
3.24255e-05
-4.4174e-05
0.000120095
-0.000108347
9.88006e-05
-0.000135408
8.45024e-05
-4.78951e-05
0.000149732
-0.000160072
7.02308e-05
-5.98907e-05
0.000172737
-0.000190014
5.64724e-05
-3.91956e-05
-6.86366e-05
7.24593e-05
-3.82268e-06
-3.5287e-06
8.52605e-06
-8.84829e-05
8.34856e-05
-8.77603e-06
5.51945e-06
-6.85262e-05
7.17828e-05
-7.77601e-07
-3.99497e-06
-6.20847e-05
6.68573e-05
8.23418e-06
-1.21922e-05
-6.13396e-05
6.52976e-05
1.60021e-05
-1.9746e-05
-6.15162e-05
6.52602e-05
2.3464e-05
-2.71333e-05
-6.24892e-05
6.61585e-05
3.08181e-05
-3.4733e-05
-6.39077e-05
6.78227e-05
3.91053e-05
-4.4034e-05
-6.47208e-05
6.96495e-05
4.94979e-05
-5.54248e-05
-6.62886e-05
7.22154e-05
6.17502e-05
-6.84679e-05
-6.97542e-05
7.64719e-05
7.56555e-05
-8.34686e-05
-7.57846e-05
8.35977e-05
9.21828e-05
-0.000101931
-8.29216e-05
9.26699e-05
0.000111655
-0.000118962
-6.26313e-05
6.99389e-05
0.000122142
-0.000125595
3.73136e-05
-3.38607e-05
0.000130492
-0.000134498
2.08928e-05
-1.68874e-05
0.000139481
-0.000138051
-8.926e-05
8.78302e-05
0.000121174
-7.96647e-05
-0.000218811
0.000177301
3.39776e-05
-3.17658e-05
4.4698e-06
-6.68159e-06
9.10105e-05
-0.000145977
5.57851e-05
-8.18536e-07
0.000140752
-0.000132062
2.84941e-05
-3.71839e-05
0.000146123
-0.000151165
4.92778e-05
-4.42364e-05
0.000153432
-0.00016594
2.13971e-05
-8.8893e-06
-7.56023e-05
7.78255e-05
-2.22318e-06
7.80141e-07
1.59295e-06
-7.93301e-05
7.6957e-05
-1.38945e-06
-7.23426e-07
-7.44394e-05
7.65523e-05
3.58618e-06
-6.57815e-06
-7.07313e-05
7.37233e-05
9.64976e-06
-1.28095e-05
-6.88781e-05
7.20379e-05
1.60166e-05
-1.92899e-05
-6.88011e-05
7.20744e-05
2.26525e-05
-2.61135e-05
-6.97807e-05
7.32416e-05
2.96875e-05
-3.34208e-05
-7.16781e-05
7.54115e-05
3.73919e-05
-4.16758e-05
-7.42306e-05
7.85146e-05
4.63079e-05
-5.12774e-05
-7.76435e-05
8.26131e-05
5.65449e-05
-6.20506e-05
-8.25597e-05
8.80654e-05
6.76988e-05
-7.33601e-05
-9.01946e-05
9.58559e-05
7.89908e-05
-8.48171e-05
-9.97286e-05
0.000105555
9.15129e-05
-0.000100721
-7.64307e-05
8.56384e-05
0.000115471
-0.000134795
1.98157e-05
-4.91158e-07
0.000151818
-0.000167915
7.46982e-06
8.62719e-06
0.000174568
-0.000174086
-8.46096e-05
8.41273e-05
0.000159861
-0.000138123
-0.000128357
0.00010662
0.000143033
-0.000156136
-3.85615e-05
5.16648e-05
0.000154455
-0.000148145
-1.67806e-06
-4.63203e-06
0.000146638
-0.000144358
3.94289e-05
-4.17092e-05
0.000141673
-0.000142447
4.32983e-05
-4.25246e-05
0.000148464
-0.000168122
-2.00741e-06
2.16653e-05
-7.94484e-05
8.0839e-05
-1.39059e-06
2.03151e-06
-2.62893e-06
-7.63589e-05
7.69563e-05
3.71624e-06
-5.05439e-06
-7.81935e-05
7.95317e-05
6.63239e-06
-8.54541e-06
-7.60513e-05
7.79643e-05
1.0755e-05
-1.31558e-05
-7.47946e-05
7.71954e-05
1.56964e-05
-1.83674e-05
-7.50504e-05
7.77215e-05
2.11748e-05
-2.41357e-05
-7.6472e-05
7.94328e-05
2.72666e-05
-3.05825e-05
-7.89619e-05
8.22777e-05
3.41018e-05
-3.78435e-05
-8.25258e-05
8.62674e-05
4.18184e-05
-4.60223e-05
-8.71749e-05
9.13788e-05
5.04345e-05
-5.50129e-05
-9.30751e-05
9.76535e-05
5.96806e-05
-6.43368e-05
-0.000100934
0.00010559
6.89935e-05
-7.42665e-05
-0.000111073
0.000116346
8.25495e-05
-9.88751e-05
-9.92583e-05
0.000115584
0.000127849
-0.000164562
-2.62557e-05
6.29694e-05
0.000191065
-0.000197195
-2.20003e-05
2.813e-05
0.000194068
-0.000184451
-8.40717e-05
7.44554e-05
0.000174047
-0.000171735
-0.000103877
0.000101566
0.000180832
-0.000179113
-4.39845e-05
4.22655e-05
0.000176262
-0.000160929
1.58997e-05
-3.1233e-05
0.000139706
-0.000130042
4.26902e-05
-5.23538e-05
0.000136242
-0.000149393
3.82692e-05
-2.51184e-05
0.000168311
-0.000168816
-4.12456e-05
4.17508e-05
-8.22316e-05
8.37164e-05
-1.48472e-06
2.68378e-06
-4.07126e-06
-7.81421e-05
7.95295e-05
5.36341e-06
-6.55302e-06
-8.07393e-05
8.19289e-05
7.85395e-06
-9.36757e-06
-7.9636e-05
8.11496e-05
1.10525e-05
-1.2867e-05
-7.92876e-05
8.11021e-05
1.47993e-05
-1.68524e-05
-8.00856e-05
8.21387e-05
1.90419e-05
-2.13933e-05
-8.20989e-05
8.44503e-05
2.39334e-05
-2.66839e-05
-8.53239e-05
8.80743e-05
2.96568e-05
-3.28535e-05
-8.97375e-05
9.29342e-05
3.62633e-05
-3.98622e-05
-9.52613e-05
9.88601e-05
4.3608e-05
-4.74381e-05
-0.00010184
0.00010567
5.12673e-05
-5.49756e-05
-0.000109802
0.000113511
5.84487e-05
-6.17416e-05
-0.000120839
0.000124132
6.57418e-05
-7.34288e-05
-0.000129184
0.000136871
8.966e-05
-0.000117468