/*--------------------------------*- C++ -*----------------------------------*\
| =========                 |                                                 |
| \\      /  F ield         | OpenFOAM: The Open Source CFD Toolbox           |
|  \\    /   O peration     | Version:  v1912                                 |
|   \\  /    A nd           | Website:  www.openfoam.com                      |
|    \\/     M anipulation  |                                                 |
\*---------------------------------------------------------------------------*/
FoamFile
{
    version     2.0;
    format      ascii;
    class       volVectorField;
    location    "0.75";
    object      U;
}
// * * * * * * * * * * * * * * * * * * * * * * * * * * * * * * * * * * * * * //

dimensions      [0 1 -1 0 0 0 0];


internalField   nonuniform List<vector> 
9072
(
(-0.019786 0.017285 0)
(-0.063832 0.00626697 0)
(-0.0951502 0.00424431 0)
(-0.142478 0.0056001 0)
(-0.158371 -0.00160486 0)
(-0.124674 -0.00298513 0)
(-0.113038 0.00109927 0)
(-0.132182 0.00426806 0)
(-0.166939 0.00420789 0)
(-0.197863 0.00298714 0)
(-0.2218 0.00238001 0)
(-0.241975 0.00218108 0)
(-0.261108 0.00205565 0)
(-0.286275 0.00122709 0)
(-0.292843 -0.0097895 0)
(-0.318012 0.012275 0)
(-0.426604 0.00810028 0)
(-0.279352 -0.0309019 0)
(-0.120848 -0.0275743 0)
(-0.211364 0.0344631 0)
(-0.500919 0.014546 0)
(-0.301448 -0.03454 0)
(-0.0709848 -0.0224555 0)
(-0.0246527 0.054424 0)
(-0.0679838 0.0201183 0)
(-0.0984815 0.0239215 0)
(-0.166336 0.0270274 0)
(-0.19121 -0.0104633 0)
(-0.138492 -0.0205467 0)
(-0.115737 0.00193026 0)
(-0.125451 0.015541 0)
(-0.148889 0.0191276 0)
(-0.177906 0.0168418 0)
(-0.205205 0.0137999 0)
(-0.226991 0.0120384 0)
(-0.24489 0.0147624 0)
(-0.267181 0.0227979 0)
(-0.333448 0.0307966 0)
(-0.433835 0.0445697 0)
(-0.415205 -0.0275113 0)
(-0.38885 -0.0805 0)
(-0.428448 0.0155707 0)
(-0.522752 0.118433 0)
(-0.371311 -0.0573869 0)
(-0.194251 -0.135358 0)
(-0.0748408 -0.0934874 0)
(-0.0192827 0.0847064 0)
(-0.0556595 0.0310298 0)
(-0.105919 0.0552285 0)
(-0.22052 0.0675176 0)
(-0.25481 -0.0252721 0)
(-0.172432 -0.0520605 0)
(-0.132832 -0.000370807 0)
(-0.14122 0.0237592 0)
(-0.163527 0.0310008 0)
(-0.188545 0.0294996 0)
(-0.211156 0.0245742 0)
(-0.229018 0.0203338 0)
(-0.242548 0.0203054 0)
(-0.249363 0.0291713 0)
(-0.246235 0.0563357 0)
(-0.243373 0.0576782 0)
(-0.232181 -0.0246266 0)
(-0.287978 -0.0473557 0)
(-0.374719 0.0393114 0)
(-0.30879 0.0630659 0)
(-0.139285 -0.128429 0)
(-0.0633952 -0.184346 0)
(-0.0376032 -0.120632 0)
(-0.0117872 0.106862 0)
(-0.052252 0.0486037 0)
(-0.12348 0.101455 0)
(-0.223139 0.107774 0)
(-0.214835 -0.0454852 0)
(-0.174986 -0.0896165 0)
(-0.145561 -0.00157443 0)
(-0.159831 0.0322002 0)
(-0.180399 0.041885 0)
(-0.200988 0.0397314 0)
(-0.218157 0.0329086 0)
(-0.231357 0.026727 0)
(-0.241091 0.0249426 0)
(-0.246589 0.0295354 0)
(-0.236715 0.0427195 0)
(-0.192138 0.0375906 0)
(-0.176132 -0.0160091 0)
(-0.197533 -0.0177151 0)
(-0.195401 0.0317554 0)
(-0.0918539 -0.00678965 0)
(0.00649824 -0.159702 0)
(-0.0193296 -0.181327 0)
(-0.0246883 -0.130736 0)
(-1.57308e-05 0.119004 0)
(-0.0443955 0.0735698 0)
(-0.0949121 0.135231 0)
(-0.117027 0.11722 0)
(-0.066413 -0.0607457 0)
(-0.0915953 -0.080797 0)
(-0.149114 0.00491096 0)
(-0.177102 0.0416289 0)
(-0.19648 0.0509323 0)
(-0.212188 0.0474713 0)
(-0.224305 0.0389273 0)
(-0.233369 0.0312428 0)
(-0.239919 0.0279149 0)
(-0.242592 0.0295763 0)
(-0.235945 0.0334128 0)
(-0.21455 0.0225544 0)
(-0.205266 -0.0121795 0)
(-0.205247 -0.0246456 0)
(-0.141291 -0.00756596 0)
(-0.0285626 -0.0548748 0)
(0.00796557 -0.159184 0)
(-0.0158721 -0.170578 0)
(-0.0172035 -0.138172 0)
(0.0185929 0.109566 0)
(-0.010715 0.0925813 0)
(-0.0145051 0.138082 0)
(0.0299431 0.100241 0)
(0.0946239 -0.0742936 0)
(-0.00321312 -0.0194593 0)
(-0.152227 0.0308018 0)
(-0.191285 0.0534102 0)
(-0.210077 0.0583208 0)
(-0.221648 0.0528848 0)
(-0.229504 0.042886 0)
(-0.235217 0.034209 0)
(-0.239476 0.0298111 0)
(-0.24112 0.0291343 0)
(-0.23681 0.0280249 0)
(-0.225224 0.0153519 0)
(-0.21788 -0.0126794 0)
(-0.208656 -0.0344563 0)
(-0.161659 -0.049896 0)
(-0.0773133 -0.09793 0)
(-0.0253055 -0.163548 0)
(-0.00906441 -0.171531 0)
(-0.00207995 -0.144009 0)
(0.0331379 0.0667914 0)
(0.0596879 0.103502 0)
(0.0773176 0.115492 0)
(0.132886 0.0649929 0)
(0.178717 -0.0590965 0)
(-0.036027 0.0724361 0)
(-0.169099 0.0667291 0)
(-0.202712 0.0659288 0)
(-0.219555 0.0644282 0)
(-0.22825 0.0565949 0)
(-0.233298 0.0453455 0)
(-0.236796 0.0360342 0)
(-0.239756 0.03106 0)
(-0.24137 0.0289927 0)
(-0.239942 0.025333 0)
(-0.235404 0.0117114 0)
(-0.231562 -0.0150961 0)
(-0.219835 -0.0459481 0)
(-0.177454 -0.0809019 0)
(-0.10505 -0.132849 0)
(-0.0396573 -0.18209 0)
(0.00251155 -0.181316 0)
(0.0158139 -0.143821 0)
(0.0400849 -0.0056821 0)
(0.12939 0.103422 0)
(0.18942 0.0927629 0)
(0.240606 0.0299178 0)
(-0.0665985 0.068902 0)
(-0.148335 0.125577 0)
(-0.193617 0.0884747 0)
(-0.214621 0.0751654 0)
(-0.225589 0.0696104 0)
(-0.232106 0.0595167 0)
(-0.235486 0.0469773 0)
(-0.237193 0.037069 0)
(-0.239105 0.0320677 0)
(-0.241371 0.029634 0)
(-0.243564 0.0251209 0)
(-0.245661 0.0111512 0)
(-0.247222 -0.0166605 0)
(-0.238384 -0.0565294 0)
(-0.20089 -0.10802 0)
(-0.130759 -0.169552 0)
(-0.0502058 -0.213478 0)
(0.0164232 -0.201446 0)
(0.0432094 -0.138598 0)
(0.0283145 -0.175641 0)
(0.168222 0.031029 0)
(-0.70151 0.0490929 0)
(-0.86378 -0.0104587 0)
(-0.81841 -0.0227065 0)
(-0.730252 -0.0314924 0)
(-0.293048 -0.0609844 0)
(-0.0815826 0.0286832 0)
(-0.337158 0.0134972 0)
(-0.106916 -0.0704899 0)
(0.21099 -0.00168817 0)
(0.194392 -0.0438829 0)
(-1.10453 0.207058 0)
(-1.73985 -0.0467768 0)
(-0.929562 -0.102406 0)
(-0.394615 -0.0553499 0)
(-0.117481 -0.0737042 0)
(-0.28451 0.0373593 0)
(-0.31172 -0.0181871 0)
(-0.244652 0.0256377 0)
(-0.728721 0.360293 0)
(-0.989694 0.134608 0)
(-0.890263 -0.0701182 0)
(-0.885048 -0.0695488 0)
(-0.478947 -0.145022 0)
(0.0742308 -0.24441 0)
(0.162809 0.0520514 0)
(0.0081468 0.0665693 0)
(0.184465 -0.241541 0)
(-0.0803556 0.120548 0)
(-1.57621 0.5719 0)
(-1.88309 0.326629 0)
(-0.990637 -0.31617 0)
(-0.28954 -0.453123 0)
(-0.04042 0.0541326 0)
(-0.390829 0.0229693 0)
(-0.775944 0.086979 0)
(-0.589096 -0.272121 0)
(-0.0923541 0.303731 0)
(-0.483528 0.456811 0)
(-0.00133721 0.0255945 0)
(0.227456 -0.135437 0)
(0.523331 -0.0977734 0)
(0.743416 -0.337821 0)
(0.557773 -0.257613 0)
(0.246805 0.113213 0)
(0.109359 0.0987589 0)
(-0.0583109 -0.14058 0)
(-1.14922 0.674476 0)
(-2.00212 0.757237 0)
(-0.997305 0.0490722 0)
(-0.617862 -0.471654 0)
(0.192064 -0.635878 0)
(-0.0399486 -0.0480407 0)
(0.493429 0.0950559 0)
(0.641737 0.3932 0)
(-0.169537 -0.433369 0)
(0.188227 0.316267 0)
(0.291469 0.179448 0)
(0.671577 -0.0409332 0)
(0.623704 -0.09091 0)
(0.764072 -0.162184 0)
(0.972464 -0.356833 0)
(0.805333 -0.132534 0)
(0.345637 0.280615 0)
(-0.0227718 0.161531 0)
(-0.539183 0.242356 0)
(-1.71977 1.11934 0)
(-1.25101 0.337387 0)
(0.0549228 -0.442228 0)
(0.671468 -0.577258 0)
(0.612469 -0.68126 0)
(0.237919 -0.0693021 0)
(0.380344 -0.313959 0)
(1.13553 0.368004 0)
(0.655075 -0.00558372 0)
(0.0153026 0.136806 0)
(0.34781 0.0691658 0)
(0.518295 -0.114408 0)
(0.599251 -0.120323 0)
(0.917418 -0.298852 0)
(1.00379 -0.35146 0)
(0.903712 -0.0616644 0)
(0.397853 0.533396 0)
(-0.162475 0.306979 0)
(-0.990518 0.733156 0)
(-1.79823 1.20653 0)
(-0.594648 -0.0593203 0)
(0.564791 -0.892307 0)
(0.913855 -0.693549 0)
(0.92809 -0.465495 0)
(0.582241 -0.0831443 0)
(0.887917 -0.271444 0)
(0.895247 0.199192 0)
(0.746426 0.433846 0)
(-0.190974 0.0581307 0)
(0.17445 -0.0598421 0)
(0.438414 -0.150495 0)
(0.774316 -0.275324 0)
(0.954584 -0.349964 0)
(1.08729 -0.382941 0)
(0.9639 0.115116 0)
(0.276121 0.796237 0)
(-0.290749 0.538109 0)
(-1.26135 1.20382 0)
(-1.19573 0.798895 0)
(-0.0580493 -0.685021 0)
(0.401374 -1.02426 0)
(0.670842 -0.763812 0)
(1.01175 -0.396976 0)
(0.801642 -0.136947 0)
(1.16109 -0.421469 0)
(0.699869 0.233541 0)
(0.415507 0.692084 0)
(-0.350035 0.105958 0)
(0.499019 -0.162943 0)
(0.666671 -0.255184 0)
(0.871863 -0.354437 0)
(1.05881 -0.44957 0)
(1.42135 -0.361538 0)
(0.0552907 0.773249 0)
(0.124764 0.796675 0)
(-0.367269 0.779985 0)
(-1.12127 1.51129 0)
(-0.726737 0.497761 0)
(0.20982 -1.01834 0)
(-0.732331 -0.956691 0)
(-0.0878768 -1.04244 0)
(0.560058 -0.434109 0)
(0.521992 -0.0985553 0)
(0.664938 -0.254305 0)
(-0.321578 0.405569 0)
(-0.0838756 0.740273 0)
(0.38216 -0.230282 0)
(0.537805 -0.310231 0)
(0.752422 -0.351146 0)
(0.76137 -0.402526 0)
(1.79281 -0.792677 0)
(0.73702 0.375299 0)
(-0.29864 0.977184 0)
(-0.251208 0.724753 0)
(-0.394608 0.93737 0)
(-0.727758 1.61697 0)
(-0.374573 0.0789137 0)
(-0.0140797 -0.722498 0)
(-1.11293 -1.03619 0)
(-0.199993 -1.49343 0)
(0.675452 -0.533161 0)
(0.728645 -0.0469856 0)
(-0.611094 0.0668569 0)
(-0.711659 0.475113 0)
(-0.336611 0.528421 0)
(-0.129162 0.153618 0)
(-0.138422 0.111284 0)
(-0.224851 0.129649 0)
(-0.245779 0.126632 0)
(-0.259503 0.0931851 0)
(-0.192921 0.114323 0)
(-0.167436 0.103988 0)
(-0.191909 0.0898888 0)
(-0.215679 0.0765761 0)
(-0.232646 0.0627342 0)
(-0.24101 0.0474455 0)
(-0.244347 0.0354666 0)
(-0.246002 0.0313541 0)
(-0.245858 0.0312854 0)
(-0.247695 0.0289793 0)
(-0.25598 0.0157702 0)
(-0.267465 -0.0145008 0)
(-0.26877 -0.0667124 0)
(-0.240935 -0.139555 0)
(-0.170416 -0.220225 0)
(-0.0529254 -0.268047 0)
(0.0931972 -0.24607 0)
(0.188488 -0.13641 0)
(-0.144007 0.550595 0)
(-0.550383 0.422432 0)
(-0.79641 0.125687 0)
(-0.976139 0.116737 0)
(-0.894719 0.023262 0)
(-0.636588 -0.0405682 0)
(-0.429405 0.0671437 0)
(-0.311391 0.0813945 0)
(-0.243323 0.0821839 0)
(-0.21935 0.0726494 0)
(-0.209866 0.0586886 0)
(-0.208067 0.0478072 0)
(-0.212976 0.0409833 0)
(-0.229344 0.0406653 0)
(-0.254838 0.0431633 0)
(-0.290546 0.0346199 0)
(-0.333324 0.00660045 0)
(-0.366354 -0.0636225 0)
(-0.358253 -0.184996 0)
(-0.250524 -0.357283 0)
(-0.0927861 -0.481261 0)
(-0.107256 -0.391121 0)
(-0.172958 -0.204299 0)
(-0.105803 0.962211 0)
(-0.415209 0.633496 0)
(-0.507925 0.332294 0)
(-0.52551 0.268556 0)
(-0.720303 0.156735 0)
(-1.11442 -0.109098 0)
(-1.31381 -0.18215 0)
(-1.29647 -0.175136 0)
(-0.870226 -0.0477896 0)
(-0.681156 -0.0122285 0)
(-0.537056 -0.00227108 0)
(-0.428112 0.00986899 0)
(-0.307786 0.0255115 0)
(-0.224542 0.0391113 0)
(-0.191515 0.066089 0)
(-0.233708 0.0904909 0)
(-0.341283 0.0793298 0)
(-0.45992 -0.0215165 0)
(-0.523044 -0.218926 0)
(-0.68119 -0.38969 0)
(-1.15686 -0.181056 0)
(-1.3355 -0.101257 0)
(-1.36231 -0.115801 0)
(-0.0561693 1.24968 0)
(-0.326686 0.782463 0)
(-0.441524 0.340716 0)
(-0.401322 0.220561 0)
(-0.381533 0.349125 0)
(-0.544283 0.351295 0)
(-0.916747 0.289265 0)
(-1.38248 0.179023 0)
(-1.7976 0.0403268 0)
(-1.98126 -0.0976032 0)
(-2.14891 -0.254688 0)
(-2.51374 -0.427573 0)
(-2.84421 -0.338067 0)
(-2.57783 -0.203975 0)
(-1.92425 -0.0375474 0)
(-1.23378 0.0969383 0)
(-0.882121 0.131409 0)
(-0.848809 0.0542921 0)
(-1.56818 0.340604 0)
(-2.54157 0.248295 0)
(-2.54932 -0.14944 0)
(-2.14145 -0.255447 0)
(-1.83929 -0.143442 0)
(0.0148773 1.31068 0)
(-0.118561 0.945231 0)
(-0.185651 0.41522 0)
(-0.247547 0.206595 0)
(-0.284313 0.3541 0)
(-0.29261 0.469521 0)
(-0.341994 0.506996 0)
(-0.443654 0.42428 0)
(-0.589169 0.224911 0)
(-0.750666 0.0870752 0)
(-0.887948 0.0361048 0)
(-1.13146 0.0815981 0)
(-1.56527 0.0915424 0)
(-1.9659 -0.327376 0)
(-1.81873 -0.898118 0)
(-1.08124 -0.493532 0)
(-1.57356 0.250645 0)
(-2.43048 1.05456 0)
(-3.24147 1.15353 0)
(-2.91957 0.258205 0)
(-2.35615 -0.59936 0)
(-2.13058 -0.857366 0)
(-1.80078 -0.788492 0)
(0.0681268 1.11529 0)
(0.0580307 0.95716 0)
(0.0730106 0.4969 0)
(-0.0731583 0.318251 0)
(-0.190336 0.405885 0)
(-0.239061 0.480326 0)
(-0.253552 0.526669 0)
(-0.283378 0.478749 0)
(-0.359816 0.358752 0)
(-0.513702 0.284158 0)
(-0.702685 0.283466 0)
(-0.869337 0.389745 0)
(-1.00943 0.417472 0)
(-1.22038 -0.0394309 0)
(-1.60222 -0.557989 0)
(-2.40676 -0.345617 0)
(-2.16925 0.598079 0)
(-3.2681 1.825 0)
(-2.86593 0.771896 0)
(-2.79992 -0.218944 0)
(-2.10498 -0.94751 0)
(-1.87975 -0.915425 0)
(-1.88575 -0.86601 0)
(0.0621969 0.819738 0)
(0.162613 0.990287 0)
(0.0997446 0.574377 0)
(-0.0126485 0.460278 0)
(-0.131668 0.49832 0)
(-0.210578 0.5269 0)
(-0.259882 0.558026 0)
(-0.31731 0.541653 0)
(-0.420163 0.480823 0)
(-0.567996 0.453655 0)
(-0.740515 0.460732 0)
(-0.905096 0.498739 0)
(-1.02319 0.502386 0)
(-1.19657 0.180389 0)
(-1.51027 -0.239667 0)
(-1.50264 -0.0889167 0)
(-1.51225 0.815246 0)
(-1.88389 2.71121 0)
(-2.30399 0.725593 0)
(-1.81554 -0.923172 0)
(-1.80441 -1.3452 0)
(-1.7834 -0.883856 0)
(-1.90909 -0.821114 0)
(-0.0520231 0.700139 0)
(0.168335 1.01484 0)
(0.111598 0.673656 0)
(-0.00104955 0.581586 0)
(-0.109794 0.593017 0)
(-0.196235 0.601749 0)
(-0.271102 0.617386 0)
(-0.342331 0.625805 0)
(-0.446496 0.610649 0)
(-0.583379 0.609782 0)
(-0.739854 0.632902 0)
(-0.918548 0.672814 0)
(-1.13162 0.692848 0)
(-1.45112 0.49077 0)
(-1.53408 -0.193845 0)
(-1.35788 -0.245634 0)
(-1.44168 0.926948 0)
(-1.29154 2.72211 0)
(-1.05049 0.696455 0)
(-0.109648 -1.38307 0)
(-1.37533 -0.664324 0)
(-1.66942 -0.679415 0)
(-1.93513 -0.507397 0)
(-0.0566705 0.760346 0)
(0.0748967 0.926579 0)
(0.0837474 0.757897 0)
(-0.0191795 0.697385 0)
(-0.110152 0.683901 0)
(-0.192047 0.68426 0)
(-0.271916 0.693889 0)
(-0.35087 0.71066 0)
(-0.444581 0.725751 0)
(-0.561822 0.748316 0)
(-0.697561 0.790268 0)
(-0.851492 0.862146 0)
(-1.03472 0.952992 0)
(-1.25897 0.709696 0)
(-1.29304 -0.454611 0)
(-1.44597 -0.217798 0)
(-1.52309 0.973639 0)
(-1.11792 2.24227 0)
(-0.100025 -0.271672 0)
(-1.50079 -0.0928017 0)
(-1.42599 -0.346809 0)
(-1.59787 -0.482646 0)
(-1.68492 -0.140519 0)
(-0.0242905 0.829812 0)
(0.0105896 0.837552 0)
(0.00705939 0.815693 0)
(-0.0546756 0.781233 0)
(-0.120542 0.761188 0)
(-0.189395 0.760645 0)
(-0.261584 0.772019 0)
(-0.338236 0.793854 0)
(-0.423359 0.824698 0)
(-0.522708 0.865633 0)
(-0.635699 0.922011 0)
(-0.756667 1.00595 0)
(-0.876222 1.11106 0)
(-1.03621 0.871838 0)
(-1.22637 -0.118777 0)
(-1.81582 0.00175492 0)
(-1.88434 0.915542 0)
(-1.54661 1.17864 0)
(-1.67331 0.650176 0)
(-1.59905 -0.135901 0)
(-1.54783 -0.439977 0)
(-1.51637 -0.459873 0)
(-1.63337 0.0906218 0)
(-0.0101138 0.864829 0)
(-0.0237245 0.824855 0)
(-0.0467889 0.85143 0)
(-0.0806272 0.831617 0)
(-0.128054 0.820726 0)
(-0.1826 0.82488 0)
(-0.242862 0.841743 0)
(-0.310029 0.870489 0)
(-0.385488 0.911306 0)
(-0.47072 0.964187 0)
(-0.565418 1.03026 0)
(-0.665582 1.11535 0)
(-0.76636 1.22804 0)
(-0.94533 1.15576 0)
(-1.53745 0.440246 0)
(-2.19656 0.325221 0)
(-2.03374 0.935281 0)
(-1.86493 1.11152 0)
(-1.92085 0.457503 0)
(-1.83616 -0.305006 0)
(-1.37227 -0.491183 0)
(-1.54684 -0.380919 0)
(-1.8921 0.507621 0)
(-0.00876191 0.894916 0)
(-0.0364805 0.850345 0)
(-0.0641407 0.87746 0)
(-0.091972 0.867683 0)
(-0.128158 0.865863 0)
(-0.169674 0.875886 0)
(-0.216693 0.899283 0)
(-0.27119 0.936252 0)
(-0.334936 0.986251 0)
(-0.408039 1.04806 0)
(-0.488355 1.1206 0)
(-0.570483 1.20598 0)
(-0.644808 1.3243 0)
(-0.728729 1.45084 0)
(-1.08336 1.27518 0)
(-1.84224 0.517252 0)
(-1.85349 0.390231 0)
(-0.677312 0.464261 0)
(-0.277488 1.28277 0)
(-1.75574 -0.342756 0)
(-1.64327 -0.793624 0)
(-1.64299 -0.0289923 0)
(-1.67507 0.20355 0)
(-0.010127 0.929631 0)
(-0.0413719 0.88125 0)
(-0.0696355 0.903546 0)
(-0.0957456 0.897385 0)
(-0.122749 0.899205 0)
(-0.15101 0.913117 0)
(-0.182944 0.942667 0)
(-0.222568 0.988826 0)
(-0.273598 1.04959 0)
(-0.336919 1.12079 0)
(-0.408496 1.19734 0)
(-0.478337 1.27641 0)
(-0.5286 1.37194 0)
(-0.534117 1.502 0)
(-0.523469 1.55768 0)
(-0.728612 1.04479 0)
(-0.636407 -0.0580268 0)
(-0.683275 -0.122377 0)
(-0.256491 1.66642 0)
(-1.24683 0.409025 0)
(-1.25024 -0.896477 0)
(-1.48372 0.0157309 0)
(-1.28744 -0.236436 0)
(-0.0120411 0.970317 0)
(-0.0467 0.912899 0)
(-0.0759911 0.929895 0)
(-0.0989488 0.920856 0)
(-0.11598 0.920349 0)
(-0.128447 0.934307 0)
(-0.141177 0.968842 0)
(-0.162033 1.02614 0)
(-0.199216 1.10239 0)
(-0.256742 1.18805 0)
(-0.329818 1.27029 0)
(-0.402276 1.33805 0)
(-0.449183 1.3972 0)
(-0.449909 1.47079 0)
(-0.421206 1.53672 0)
(-0.536288 1.23629 0)
(-0.784228 -0.0679236 0)
(-1.08967 -0.122567 0)
(-0.456036 1.81412 0)
(-0.0210757 0.791842 0)
(-0.100445 -0.572244 0)
(-1.0115 0.238666 0)
(-0.921536 -0.377255 0)
(-0.0149445 1.01948 0)
(-0.0556354 0.947793 0)
(-0.0882036 0.956162 0)
(-0.108328 0.937394 0)
(-0.113795 0.926795 0)
(-0.10541 0.934357 0)
(-0.0907518 0.971414 0)
(-0.0842692 1.04365 0)
(-0.103318 1.14552 0)
(-0.159894 1.25893 0)
(-0.250059 1.35549 0)
(-0.345889 1.40924 0)
(-0.410655 1.42715 0)
(-0.425047 1.46041 0)
(-0.415599 1.5544 0)
(-0.491028 1.48923 0)
(-0.85338 0.259319 0)
(-1.06126 -0.0326933 0)
(-1.03177 0.219632 0)
(0.0438804 0.263843 0)
(-0.711546 0.549453 0)
(-0.95835 0.47079 0)
(-0.947565 -0.249391 0)
(-0.0195061 1.08234 0)
(-0.0713692 0.990324 0)
(-0.112245 0.984962 0)
(-0.132723 0.947438 0)
(-0.125629 0.914747 0)
(-0.088542 0.904067 0)
(-0.0313811 0.93754 0)
(0.0209527 1.03024 0)
(0.0325665 1.17698 0)
(-0.0260448 1.34705 0)
(-0.159368 1.47881 0)
(-0.318058 1.52038 0)
(-0.445674 1.48737 0)
(-0.469475 1.44826 0)
(-0.469233 1.56489 0)
(-0.494213 1.61585 0)
(-0.69527 0.769757 0)
(-1.08482 0.0982428 0)
(-1.1214 0.216155 0)
(-1.20085 0.495377 0)
(-1.31192 0.629997 0)
(-0.955924 0.216512 0)
(-1.12291 -0.020448 0)
(-0.0263394 1.16691 0)
(-0.0977476 1.04794 0)
(-0.156164 1.02281 0)
(-0.185047 0.954486 0)
(-0.167805 0.880428 0)
(-0.0917778 0.828417 0)
(0.0352734 0.842048 0)
(0.17052 0.960534 0)
(0.243232 1.18686 0)
(0.192865 1.47665 0)
(-0.0344602 1.69391 0)
(-0.325442 1.73305 0)
(-0.577964 1.59994 0)
(-0.689042 1.47787 0)
(-0.770709 1.59699 0)
(-0.659232 1.5552 0)
(-0.534391 1.04359 0)
(-0.834154 0.287242 0)
(-0.974089 0.18034 0)
(-1.03386 0.535702 0)
(-1.05461 0.462053 0)
(-1.1439 0.272327 0)
(-1.17774 -0.043875 0)
(-0.0356906 1.28338 0)
(-0.138176 1.13195 0)
(-0.228876 1.0822 0)
(-0.283517 0.969344 0)
(-0.268934 0.824099 0)
(-0.145124 0.6856 0)
(0.0990901 0.635872 0)
(0.397282 0.768156 0)
(0.571543 1.15759 0)
(0.588822 1.70762 0)
(0.0799601 2.12357 0)
(-0.483535 2.10659 0)
(-0.87338 1.85905 0)
(-1.27426 1.70154 0)
(-1.42859 1.594 0)
(-0.840059 1.02571 0)
(-0.0511705 0.856334 0)
(-0.271414 0.645058 0)
(-0.760596 0.427931 0)
(-1.07911 0.685291 0)
(-1.10403 0.641348 0)
(-1.14969 0.309879 0)
(-0.939276 -0.458443 0)
(-0.0467317 1.44153 0)
(-0.192955 1.25688 0)
(-0.336163 1.18444 0)
(-0.449683 1.01855 0)
(-0.477497 0.76144 0)
(-0.31208 0.455048 0)
(0.169169 0.223333 0)
(0.819934 0.0486534 0)
(1.25146 1.06682 0)
(0.696215 1.55414 0)
(0.774882 3.30887 0)
(-0.255725 2.95226 0)
(-1.4631 2.47309 0)
(-2.19931 2.14556 0)
(-1.57793 0.916439 0)
(-1.58459 0.682818 0)
(-1.58306 0.7137 0)
(-1.33212 0.748934 0)
(-1.30051 0.770047 0)
(-1.27482 0.717952 0)
(-1.12975 0.550902 0)
(-0.919104 0.158671 0)
(-0.95207 -0.218107 0)
(-0.0565654 1.64433 0)
(-0.254108 1.43655 0)
(-0.470102 1.36048 0)
(-0.696325 1.15904 0)
(-0.859517 0.748882 0)
(-0.777747 0.0877965 0)
(-1.38567 0.315577 0)
(-2.07383 0.784466 0)
(-1.97127 0.890314 0)
(-1.32178 1.33779 0)
(-0.631946 2.91335 0)
(-0.850823 4.16748 0)
(-2.16288 3.6118 0)
(-2.11517 1.64373 0)
(-1.89806 0.784669 0)
(-1.62316 0.650346 0)
(-1.5133 0.5909 0)
(-1.50325 0.568768 0)
(-1.37204 0.65765 0)
(-1.29424 0.564374 0)
(-1.27697 0.391639 0)
(-1.24564 0.14409 0)
(-0.571805 -0.791155 0)
(-0.0598494 1.87787 0)
(-0.299082 1.6738 0)
(-0.589309 1.64118 0)
(-0.982253 1.48591 0)
(-1.43079 0.971739 0)
(-2.00368 0.667188 0)
(-2.53616 0.889922 0)
(-2.54001 0.643512 0)
(-2.21121 0.133559 0)
(-1.86372 0.819283 0)
(-1.69759 2.66468 0)
(-1.70866 4.76988 0)
(-1.9646 4.0272 0)
(-1.9691 1.51484 0)
(-1.65013 0.340919 0)
(-1.25809 0.198863 0)
(-1.02431 0.717923 0)
(-1.31344 0.73018 0)
(-1.60266 0.740221 0)
(-1.69363 0.657444 0)
(-1.24918 0.0395383 0)
(-0.548834 -0.639375 0)
(0.0262728 -1.33005 0)
(-0.0511516 2.10405 0)
(-0.291864 1.94216 0)
(-0.602967 2.01744 0)
(-1.11978 2.08097 0)
(-1.95187 1.56763 0)
(-2.48785 1.18722 0)
(-2.64938 1.01587 0)
(-2.54307 0.60014 0)
(-2.66846 0.183124 0)
(-2.92748 0.597523 0)
(-2.45519 2.43397 0)
(-1.65152 4.39553 0)
(-1.10122 4.02542 0)
(-1.28232 1.70498 0)
(-1.14516 0.127281 0)
(-1.2609 0.0713497 0)
(-1.37845 0.720869 0)
(-1.16646 0.929458 0)
(-1.08759 0.792681 0)
(-0.709896 0.272449 0)
(-0.203784 -0.49404 0)
(0.222755 -1.14587 0)
(0.567545 -1.65528 0)
(-0.0308236 2.27045 0)
(-0.208189 2.17301 0)
(-0.416377 2.36496 0)
(-0.719688 2.74435 0)
(-1.46161 2.45651 0)
(-2.2273 1.44913 0)
(-2.35916 0.98789 0)
(-2.41911 0.583686 0)
(-2.77342 0.591703 0)
(-2.88198 0.654935 0)
(-2.54983 1.44879 0)
(-1.11402 3.17826 0)
(-0.00687004 3.79141 0)
(-0.0933829 1.7819 0)
(-0.780827 0.540719 0)
(-1.33864 0.301863 0)
(-1.26682 0.487135 0)
(-0.897071 0.596116 0)
(-0.46806 0.392611 0)
(-0.0315998 -0.203915 0)
(0.41747 -0.91743 0)
(0.808436 -1.50941 0)
(0.873344 -1.70928 0)
(-0.00666992 2.343 0)
(-0.0798425 2.29086 0)
(-0.120446 2.50357 0)
(-0.0932277 2.87872 0)
(0.0512614 3.24427 0)
(-0.743779 2.0821 0)
(-1.44963 1.1814 0)
(-1.86178 0.989244 0)
(-1.98055 0.675124 0)
(-2.06411 0.476841 0)
(-1.93591 0.871972 0)
(-1.15165 1.30747 0)
(0.727485 3.11609 0)
(0.741836 2.5063 0)
(-0.463076 1.30576 0)
(-0.834406 0.485074 0)
(-0.566648 0.0991688 0)
(-0.294705 0.238197 0)
(-0.00171009 -0.0071475 0)
(0.511231 -0.699863 0)
(1.00314 -1.36025 0)
(1.09719 -1.59278 0)
(0.928746 -1.54444 0)
(0.0157544 2.31913 0)
(0.0304092 2.28534 0)
(0.108374 2.4456 0)
(0.286266 2.65057 0)
(0.691269 2.87712 0)
(1.08354 2.65048 0)
(0.898498 1.84686 0)
(0.486262 1.32276 0)
(0.169499 0.954102 0)
(-0.209199 0.766564 0)
(-0.566025 0.780181 0)
(-0.651574 0.775087 0)
(-0.390394 1.52652 0)
(0.881115 2.84999 0)
(0.513275 1.97836 0)
(0.565196 0.66729 0)
(0.404831 -0.0143852 0)
(0.278939 0.0830898 0)
(0.694361 -0.481258 0)
(1.1986 -1.20334 0)
(1.28945 -1.45875 0)
(1.11671 -1.42574 0)
(0.935161 -1.36499 0)
(0.0290388 2.2289 0)
(0.0965912 2.20047 0)
(0.228916 2.3012 0)
(0.424248 2.37955 0)
(0.725754 2.40893 0)
(1.10467 2.26895 0)
(1.32887 1.9095 0)
(1.28561 1.54705 0)
(1.08105 1.27949 0)
(0.761106 1.17497 0)
(0.350981 1.23241 0)
(-0.319556 1.0898 0)
(-0.640586 1.1697 0)
(-0.117985 1.61551 0)
(0.989189 1.76283 0)
(1.13493 0.830292 0)
(0.726112 0.359576 0)
(0.952381 -0.19758 0)
(1.45331 -0.973456 0)
(1.50614 -1.28146 0)
(1.29981 -1.27284 0)
(1.10452 -1.23816 0)
(0.95822 -1.22464 0)
(0.0333477 2.11172 0)
(0.126996 2.08118 0)
(0.274432 2.13919 0)
(0.450164 2.15695 0)
(0.666146 2.12521 0)
(0.892202 2.00927 0)
(1.05439 1.80901 0)
(1.0995 1.60036 0)
(1.03909 1.45729 0)
(0.907094 1.43802 0)
(0.739321 1.59523 0)
(0.528636 1.83781 0)
(-0.14365 1.39305 0)
(-0.262027 1.17581 0)
(-0.0295088 1.06283 0)
(0.552161 0.748738 0)
(1.19335 0.00626738 0)
(1.71426 -0.704079 0)
(1.72054 -1.01279 0)
(1.47739 -1.05644 0)
(1.26224 -1.06557 0)
(1.10103 -1.08316 0)
(0.963687 -1.09317 0)
(0.0334954 1.99013 0)
(0.13467 1.95326 0)
(0.280062 1.98329 0)
(0.433482 1.97892 0)
(0.598139 1.93168 0)
(0.756706 1.84197 0)
(0.876146 1.71592 0)
(0.936161 1.58973 0)
(0.945379 1.50712 0)
(0.935409 1.50634 0)
(0.964395 1.62331 0)
(1.14019 1.90472 0)
(1.24057 1.84433 0)
(0.92551 1.24846 0)
(1.22479 0.684639 0)
(1.72258 0.0696344 0)
(1.98707 -0.424407 0)
(1.86016 -0.662024 0)
(1.6067 -0.76268 0)
(1.3936 -0.837411 0)
(1.22391 -0.897458 0)
(1.07683 -0.939423 0)
(0.947968 -0.967853 0)
(0.0319398 1.87422 0)
(0.130033 1.82866 0)
(0.267262 1.83905 0)
(0.402661 1.83197 0)
(0.537101 1.78417 0)
(0.664179 1.71369 0)
(0.76946 1.62676 0)
(0.845575 1.54133 0)
(0.900671 1.48036 0)
(0.959427 1.46182 0)
(1.06427 1.49061 0)
(1.28093 1.53943 0)
(1.70296 1.52092 0)
(2.09859 1.11673 0)
(2.2095 0.482161 0)
(2.09328 0.0405872 0)
(1.87499 -0.232712 0)
(1.65637 -0.417366 0)
(1.47265 -0.560055 0)
(1.31071 -0.668383 0)
(1.16366 -0.748089 0)
(1.03185 -0.807394 0)
(0.914712 -0.851935 0)
(0.0294538 1.76806 0)
(0.120323 1.71266 0)
(0.247153 1.70655 0)
(0.368653 1.70572 0)
(0.484256 1.6616 0)
(0.594296 1.60277 0)
(0.692786 1.53538 0)
(0.777938 1.46775 0)
(0.856555 1.41029 0)
(0.94457 1.3686 0)
(1.06506 1.33607 0)
(1.24151 1.28397 0)
(1.47674 1.15249 0)
(1.70802 0.87821 0)
(1.78882 0.514835 0)
(1.72541 0.194053 0)
(1.60944 -0.0589061 0)
(1.47827 -0.256161 0)
(1.34318 -0.408455 0)
(1.21098 -0.526182 0)
(1.08641 -0.61785 0)
(0.97149 -0.689757 0)
(0.866918 -0.746633 0)
(0.026766 1.67245 0)
(0.109554 1.60684 0)
(0.224732 1.58536 0)
(0.334768 1.59385 0)
(0.437649 1.55428 0)
(0.536713 1.502 0)
(0.629843 1.44412 0)
(0.716993 1.38342 0)
(0.802862 1.3236 0)
(0.896341 1.26484 0)
(1.00787 1.19955 0)
(1.1433 1.10949 0)
(1.29248 0.968073 0)
(1.41843 0.758068 0)
(1.47711 0.504264 0)
(1.46288 0.256043 0)
(1.40006 0.0392471 0)
(1.31016 -0.141371 0)
(1.20796 -0.289067 0)
(1.10246 -0.409196 0)
(0.998821 -0.506905 0)
(0.900119 -0.586715 0)
(0.808271 -0.652603 0)
(0.024358 1.58608 0)
(0.0992689 1.51137 0)
(0.202115 1.47568 0)
(0.301678 1.49283 0)
(0.39512 1.45749 0)
(0.485742 1.40894 0)
(0.573033 1.35577 0)
(0.657341 1.2978 0)
(0.74139 1.23543 0)
(0.829506 1.16717 0)
(0.92545 1.08734 0)
(1.02889 0.985848 0)
(1.13101 0.851498 0)
(1.21316 0.680315 0)
(1.25577 0.484441 0)
(1.25344 0.286635 0)
(1.21491 0.10359 0)
(1.15219 -0.0578458 0)
(1.07525 -0.196531 0)
(0.991466 -0.314118 0)
(0.905912 -0.413487 0)
(0.822115 -0.497726 0)
(0.742487 -0.569904 0)
(0.0219442 1.50743 0)
(0.0902023 1.42649 0)
(0.180386 1.37796 0)
(0.269781 1.4009 0)
(0.355359 1.36894 0)
(0.438529 1.32304 0)
(0.51916 1.27269 0)
(0.597685 1.2163 0)
(0.675479 1.15292 0)
(0.754246 1.08094 0)
(0.834724 0.996799 0)
(0.914891 0.895321 0)
(0.988473 0.772028 0)
(1.04549 0.626845 0)
(1.07645 0.466747 0)
(1.07783 0.303358 0)
(1.05282 0.146945 0)
(1.00768 0.00351914 0)
(0.948919 -0.12451 0)
(0.882172 -0.237062 0)
(0.811834 -0.335464 0)
(0.741157 -0.421641 0)
(0.672349 -0.497645 0)
(0.0194335 1.43568 0)
(0.0826727 1.35185 0)
(0.160354 1.29241 0)
(0.239792 1.31738 0)
(0.317967 1.28775 0)
(0.393828 1.2444 0)
(0.46715 1.19642 0)
(0.538375 1.14166 0)
(0.608073 1.07889 0)
(0.676609 1.00692 0)
(0.743488 0.923732 0)
(0.806575 0.826879 0)
(0.861655 0.714834 0)
(0.903086 0.588624 0)
(0.925856 0.452636 0)
(0.927804 0.313522 0)
(0.910191 0.177716 0)
(0.876474 0.0497388 0)
(0.830816 -0.0679417 0)
(0.777342 -0.174553 0)
(0.719381 -0.270459 0)
(0.6595 -0.356554 0)
(0.599436 -0.434044 0)
(0.0180274 1.36936 0)
(0.0755194 1.28587 0)
(0.142171 1.2186 0)
(0.212243 1.24205 0)
(0.282917 1.21389 0)
(0.351242 1.17328 0)
(0.41688 1.12773 0)
(0.480223 1.075 0)
(0.54136 1.01407 0)
(0.600035 0.944253 0)
(0.655374 0.86453 0)
(0.70557 0.773908 0)
(0.747809 0.672147 0)
(0.778761 0.560506 0)
(0.795617 0.441949 0)
(0.797096 0.320619 0)
(0.783798 0.20069 0)
(0.757741 0.0854477 0)
(0.721609 -0.0229635 0)
(0.678148 -0.123473 0)
(0.6297 -0.215794 0)
(0.578158 -0.300158 0)
(0.525063 -0.377362 0)
(0.0193836 1.3047 0)
(0.0667713 1.22801 0)
(0.124935 1.15476 0)
(0.1871 1.17466 0)
(0.250138 1.14766 0)
(0.310744 1.10991 0)
(0.368622 1.06689 0)
(0.424037 1.01655 0)
(0.476818 0.958243 0)
(0.526465 0.891676 0)
(0.572082 0.816451 0)
(0.612254 0.732324 0)
(0.645095 0.639607 0)
(0.668572 0.539499 0)
(0.68105 0.43411 0)
(0.68178 0.326201 0)
(0.671087 0.21862 0)
(0.650157 0.113799 0)
(0.620642 0.0135705 0)
(0.58438 -0.0808669 0)
(0.54299 -0.168973 0)
(0.498062 -0.250679 0)
(0.450776 -0.326415 0)
(0.0230286 1.23688 0)
(0.0572494 1.18137 0)
(0.10807 1.09783 0)
(0.164117 1.11468 0)
(0.219565 1.0892 0)
(0.27247 1.05429 0)
(0.322729 1.01384 0)
(0.370463 0.966092 0)
(0.415379 0.910792 0)
(0.456935 0.847915 0)
(0.494336 0.777425 0)
(0.526507 0.699457 0)
(0.552165 0.614537 0)
(0.570021 0.523729 0)
(0.579074 0.428607 0)
(0.57885 0.331143 0)
(0.569498 0.233405 0)
(0.551713 0.13727 0)
(0.526587 0.0442771 0)
(0.495413 -0.0444859 0)
(0.459581 -0.128355 0)
(0.420114 -0.20696 0)
(0.377645 -0.280173 0)
(0.0252962 1.16443 0)
(0.0512565 1.1504 0)
(0.0928038 1.0457 0)
(0.143344 1.06167 0)
(0.191286 1.03846 0)
(0.23663 1.00626 0)
(0.279508 0.968302 0)
(0.319936 0.923205 0)
(0.357576 0.870993 0)
(0.391916 0.811831 0)
(0.422287 0.745895 0)
(0.447864 0.673511 0)
(0.467739 0.595268 0)
(0.481036 0.512101 0)
(0.487087 0.425247 0)
(0.485555 0.336205 0)
(0.476526 0.24654 0)
(0.460505 0.157694 0)
(0.43834 0.070898 0)
(0.411048 -0.0128522 0)
(0.379556 -0.0927629 0)
(0.344613 -0.168063 0)
(0.307021 -0.238583 0)
(0.0222109 1.0925 0)
(0.0516309 1.13437 0)
(0.0814862 0.999208 0)
(0.125083 1.01576 0)
(0.165399 0.99537 0)
(0.203302 0.96563 0)
(0.239044 0.92998 0)
(0.272559 0.887404 0)
(0.303479 0.838148 0)
(0.331326 0.782497 0)
(0.355523 0.720754 0)
(0.375413 0.653338 0)
(0.39031 0.580845 0)
(0.399584 0.504096 0)
(0.402773 0.424094 0)
(0.39967 0.341995 0)
(0.390387 0.258987 0)
(0.375338 0.17617 0)
(0.35515 0.0945718 0)
(0.330572 0.0151376 0)
(0.302565 -0.06129 0)
(0.27221 -0.134066 0)
(0.239959 -0.202314 0)
(0.0139927 1.02992 0)
(0.0562526 1.12375 0)
(0.075539 0.962035 0)
(0.109369 0.977873 0)
(0.141705 0.959933 0)
(0.172236 0.932249 0)
(0.201078 0.89856 0)
(0.228042 0.858243 0)
(0.252707 0.811685 0)
(0.274607 0.759238 0)
(0.293225 0.701277 0)
(0.308018 0.638254 0)
(0.318457 0.570736 0)
(0.324088 0.499433 0)
(0.324598 0.425155 0)
(0.31986 0.348805 0)
(0.309956 0.271314 0)
(0.295164 0.193567 0)
(0.276025 0.116375 0)
(0.253458 0.0403793 0)
(0.22863 -0.0338421 0)
(0.202576 -0.105124 0)
(0.175763 -0.171715 0)
(0.00527754 0.982141 0)
(0.0603005 1.1068 0)
(0.0733275 0.937535 0)
(0.0953636 0.949219 0)
(0.119536 0.932231 0)
(0.142872 0.905979 0)
(0.165121 0.873782 0)
(0.185911 0.835371 0)
(0.204754 0.791178 0)
(0.221182 0.741577 0)
(0.234727 0.68696 0)
(0.244934 0.627768 0)
(0.251385 0.564518 0)
(0.253731 0.497821 0)
(0.251722 0.42835 0)
(0.245237 0.356848 0)
(0.234325 0.284054 0)
(0.219277 0.210597 0)
(0.200676 0.136933 0)
(0.179369 0.0633895 0)
(0.156507 -0.00960411 0)
(0.133865 -0.0810005 0)
(0.113152 -0.147755 0)
(0.000427153 0.943051 0)
(0.0610156 1.08123 0)
(0.0705203 0.925602 0)
(0.0819273 0.930505 0)
(0.0987828 0.912718 0)
(0.115644 0.887175 0)
(0.131993 0.855953 0)
(0.147276 0.819014 0)
(0.16096 0.776749 0)
(0.172582 0.729505 0)
(0.181709 0.677659 0)
(0.187938 0.621627 0)
(0.190906 0.561876 0)
(0.190315 0.49895 0)
(0.185957 0.433424 0)