# vtk DataFile Version 2.0
gauge_2
ASCII
DATASET POLYDATA
POINTS 85 double
0.2 0.0329993 0.005
0.2 0.0359992 0.005
0.2 0.0389992 0.005
0.2 0.0419991 0.005
0.2 0.044999 0.005
0.2 0.047999 0.005
0.2 0.0543799 0.005
0.2 0.0607609 0.005
0.2 0.0671419 0.005
0.2 0.0735228 0.005
0.2 0.0799038 0.005
0.2 0.0862847 0.005
0.2 0.0926657 0.005
0.2 0.0990467 0.005
0.2 0.105428 0.005
0.2 0.111809 0.005
0.2 0.11819 0.005
0.2 0.124571 0.005
0.2 0.130952 0.005
0.2 0.137332 0.005
0.2 0.143713 0.005
0.2 0.150094 0.005
0.2 0.156475 0.005
0.2 0.162856 0.005
0.2 0.169237 0.005
0.2 0.175618 0.005
0.2 0.181999 0.005
0.2 0.18838 0.005
0.2 0.194761 0.005
0.2 0.201142 0.005
0.2 0.207523 0.005
0.2 0.213904 0.005
0.2 0.220285 0.005
0.2 0.226666 0.005
0.2 0.233047 0.005
0.2 0.239428 0.005
0.2 0.245809 0.005
0.2 0.25219 0.005
0.2 0.258571 0.005
0.2 0.264952 0.005
0.2 0.271333 0.005
0.2 0.277714 0.005
0.2 0.284095 0.005
0.2 0.290476 0.005
0.2 0.296857 0.005
0.2 0.303238 0.005
0.2 0.309619 0.005
0.2 0.315999 0.005
0.2 0.32238 0.005
0.2 0.328761 0.005
0.2 0.335142 0.005
0.2 0.341523 0.005
0.2 0.347904 0.005
0.2 0.354285 0.005
0.2 0.360666 0.005
0.2 0.367047 0.005
0.2 0.373428 0.005
0.2 0.379809 0.005
0.2 0.38619 0.005
0.2 0.392571 0.005
0.2 0.398952 0.005
0.2 0.405333 0.005
0.2 0.411714 0.005
0.2 0.418095 0.005
0.2 0.424476 0.005
0.2 0.430857 0.005
0.2 0.437238 0.005
0.2 0.443619 0.005
0.2 0.45 0.005
0.2 0.456381 0.005
0.2 0.462762 0.005
0.2 0.469143 0.005
0.2 0.475524 0.005
0.2 0.481905 0.005
0.2 0.488286 0.005
0.2 0.494666 0.005
0.2 0.501047 0.005
0.2 0.507428 0.005
0.2 0.513809 0.005
0.2 0.52019 0.005
0.2 0.526571 0.005
0.2 0.532952 0.005
0.2 0.539333 0.005
0.2 0.545714 0.005
0.2 0.552095 0.005
POINT_DATA 85
 FIELD attributes 1
alpha.water 1 85 float
1 1 1 0.999997 0.999953 0.984346 0.654536 0.209946 0.0687064 0.0923507 0.340981 0.559761 0.318002 0.0409483 0.000353435 0.012109 0.0830512 0.150426 0.162137 0.164682 0.134805 0.0697207 0.0220059 0.00537274 0.000242819 0.000243052 0.00025008 0.000273442 0.000266881 0.000243615 0.000245168 0.000314537 0.000750229 0.00126855 0.00114388 0.00061028 0.00114613 0.00265124 0.0211765 0.0540874 0.0690319 0.06412 0.0418503 0.0141404 0.00215965 0.000189497 3.82508e-09 -1.80725e-09 2.79019e-10 1.14722e-09 1.9955e-09 5.66637e-08 7.99685e-05 0.000450942 0.000751149 0.000591664 0.000229433 1.87346e-05 1.76293e-06 7.78135e-06 0.000673016 0.00299095 0.00326428 0.00431324 0.0063888 0.00301505 1.52347e-10 6.38068e-10 5.92557e-10 8.6231e-11 3.9374e-11 1.83599e-11 1.04196e-11 5.51062e-12 2.56671e-12 9.00406e-13 2.62e-13 6.40663e-14 1.33803e-14 2.57048e-15 4.55231e-16 7.4575e-17 1.13698e-17 1.62527e-18 2.19072e-19
