# vtk DataFile Version 2.0
gauge_2
ASCII
DATASET POLYDATA
POINTS 85 double
0.2 0.0329993 0.005
0.2 0.0359992 0.005
0.2 0.0389992 0.005
0.2 0.0419991 0.005
0.2 0.044999 0.005
0.2 0.047999 0.005
0.2 0.0543799 0.005
0.2 0.0607609 0.005
0.2 0.0671419 0.005
0.2 0.0735228 0.005
0.2 0.0799038 0.005
0.2 0.0862847 0.005
0.2 0.0926657 0.005
0.2 0.0990467 0.005
0.2 0.105428 0.005
0.2 0.111809 0.005
0.2 0.11819 0.005
0.2 0.124571 0.005
0.2 0.130952 0.005
0.2 0.137332 0.005
0.2 0.143713 0.005
0.2 0.150094 0.005
0.2 0.156475 0.005
0.2 0.162856 0.005
0.2 0.169237 0.005
0.2 0.175618 0.005
0.2 0.181999 0.005
0.2 0.18838 0.005
0.2 0.194761 0.005
0.2 0.201142 0.005
0.2 0.207523 0.005
0.2 0.213904 0.005
0.2 0.220285 0.005
0.2 0.226666 0.005
0.2 0.233047 0.005
0.2 0.239428 0.005
0.2 0.245809 0.005
0.2 0.25219 0.005
0.2 0.258571 0.005
0.2 0.264952 0.005
0.2 0.271333 0.005
0.2 0.277714 0.005
0.2 0.284095 0.005
0.2 0.290476 0.005
0.2 0.296857 0.005
0.2 0.303238 0.005
0.2 0.309619 0.005
0.2 0.315999 0.005
0.2 0.32238 0.005
0.2 0.328761 0.005
0.2 0.335142 0.005
0.2 0.341523 0.005
0.2 0.347904 0.005
0.2 0.354285 0.005
0.2 0.360666 0.005
0.2 0.367047 0.005
0.2 0.373428 0.005
0.2 0.379809 0.005
0.2 0.38619 0.005
0.2 0.392571 0.005
0.2 0.398952 0.005
0.2 0.405333 0.005
0.2 0.411714 0.005
0.2 0.418095 0.005
0.2 0.424476 0.005
0.2 0.430857 0.005
0.2 0.437238 0.005
0.2 0.443619 0.005
0.2 0.45 0.005
0.2 0.456381 0.005
0.2 0.462762 0.005
0.2 0.469143 0.005
0.2 0.475524 0.005
0.2 0.481905 0.005
0.2 0.488286 0.005
0.2 0.494666 0.005
0.2 0.501047 0.005
0.2 0.507428 0.005
0.2 0.513809 0.005
0.2 0.52019 0.005
0.2 0.526571 0.005
0.2 0.532952 0.005
0.2 0.539333 0.005
0.2 0.545714 0.005
0.2 0.552095 0.005
POINT_DATA 85
 FIELD attributes 1
alpha.water 1 85 float
1 1 1 1 1 1 1 1 1 0.993572 0.716211 0.225597 0.00321832 0.000294144 3.71498e-05 1.52978e-05 1.90829e-05 6.41453e-05 0.00012501 0.000141229 0.000600329 0.00277821 0.00395504 0.0019034 0.000233029 4.8126e-05 1.31688e-05 3.22589e-06 7.91499e-07 3.26545e-07 3.23026e-07 4.28595e-07 3.61309e-06 3.34122e-05 5.20571e-05 2.52067e-05 3.76904e-06 9.86786e-07 8.16089e-07 7.32852e-07 0.000400557 0.0154547 0.0363099 0.0351201 0.0153882 0.00269032 0.0034045 0.0043902 0.00299326 0.000904539 6.50336e-05 2.58538e-06 4.55834e-06 1.73042e-05 3.36608e-05 2.21957e-05 3.18571e-06 8.32315e-07 4.74319e-07 1.06338e-07 1.66856e-08 1.60821e-09 3.04631e-10 7.74876e-11 1.26594e-11 1.07241e-12 8.23705e-14 4.2577e-15 3.20425e-16 1.46037e-17 1.45913e-18 7.42784e-20 8.52461e-21 4.37666e-22 3.05764e-23 1.19293e-24 7.6804e-26 1.28305e-27 1.01284e-28 2.44412e-30 1.74436e-31 4.84944e-33 4.24195e-34 1.00784e-35 7.7013e-37
