# vtk DataFile Version 2.0
gauge_1
ASCII
DATASET POLYDATA
POINTS 9 double
0.02 0.201142 0.005
0.02 0.207523 0.005
0.02 0.213904 0.005
0.02 0.220285 0.005
0.02 0.226666 0.005
0.02 0.233047 0.005
0.02 0.239428 0.005
0.02 0.245809 0.005
0.02 0.25219 0.005
POINT_DATA 9
 FIELD attributes 1
alpha.water 1 9 float
-5.23648e-21 -1.82163e-21 -5.75536e-22 -1.64067e-22 -4.19214e-23 -9.52939e-24 -1.90952e-24 -3.33413e-25 -4.99696e-26
