# vtk DataFile Version 2.0
gauge_1
ASCII
DATASET POLYDATA
POINTS 9 double
0.02 0.201142 0.005
0.02 0.207523 0.005
0.02 0.213904 0.005
0.02 0.220285 0.005
0.02 0.226666 0.005
0.02 0.233047 0.005
0.02 0.239428 0.005
0.02 0.245809 0.005
0.02 0.25219 0.005
POINT_DATA 9
 FIELD attributes 1
alpha.water 1 9 float
-3.34138e-16 -2.98148e-16 -2.48128e-16 -1.91533e-16 -1.36176e-16 -8.83787e-17 -5.17505e-17 -2.69273e-17 -1.22066e-17
