/*--------------------------------*- C++ -*----------------------------------*\
| =========                 |                                                 |
| \\      /  F ield         | OpenFOAM: The Open Source CFD Toolbox           |
|  \\    /   O peration     | Version:  v1912                                 |
|   \\  /    A nd           | Website:  www.openfoam.com                      |
|    \\/     M anipulation  |                                                 |
\*---------------------------------------------------------------------------*/
FoamFile
{
    version     2.0;
    format      ascii;
    class       volScalarField;
    location    "0.4";
    object      alpha.water;
}
// * * * * * * * * * * * * * * * * * * * * * * * * * * * * * * * * * * * * * //

dimensions      [0 0 0 0 0 0 0];


internalField   nonuniform List<scalar> 
9072
(
1
1
1
1
1
1
1
1
1
1
1
1
1
1
1
1
1
1
0.999753
0.858234
0.884651
0.998873
0.996186
1
1
1
1
1
1
1
1
1
1
1
1
1
1
1
1
1
1
1
0.999985
0.999975
0.974823
0.995753
1
1
1
1
1
1
1
1
1
1
1
1
1
1
1
1
1
1
1
1
1
0.928254
0.841374
1
1
1
1
1
1
1
1
1
1
1
1
1
1
1
1
1
1
1
1
1
0.863713
0.855865
1
1
1
1
1
1
1
1
1
1
1
1
1
1
1
1
1
1
1
1
1
1
0.980014
1
1
1
1
1
1
1
1
1
1
1
1
1
1
1
1
1
1
1
1
1
1
0.999997
1
1
1
1
1
1
1
1
1
1
1
1
1
1
1
1
1
1
1
1
1
1
1
1
1
1
1
1
1
1
1
1
1
1
1
1
1
1
1
1
1
1
1
1
1
1
3.16123e-28
3.09664e-27
9.8699e-27
7.03496e-30
1.23769e-33
1.40983e-37
8.18941e-42
6.84812e-45
7.72997e-48
6.05338e-51
3.69195e-56
-3.23782e-54
-7.92032e-52
-1.68373e-49
-2.64136e-47
-3.02463e-45
-2.54119e-43
-1.69295e-41
-1.06713e-39
5.97231e-24
1.15072e-23
1.68317e-21
1.76457e-24
6.72795e-29
2.60438e-33
8.77663e-37
1.82633e-39
3.04523e-42
4.52851e-45
6.18066e-48
-9.07339e-51
-4.22845e-48
-1.03527e-45
-1.73549e-43
-2.04685e-41
-1.73157e-39
-1.13411e-37
-6.93632e-36
4.02718e-20
5.49481e-19
2.40083e-17
2.03096e-19
1.87298e-24
1.77678e-28
5.88772e-33
1.92965e-35
3.37538e-38
5.10913e-41
7.36944e-44
6.59758e-47
-6.4528e-45
-1.529e-42
-2.47376e-40
-2.81648e-38
-2.30565e-36
-1.44757e-34
-8.09547e-33
3.2372e-16
2.29412e-15
4.06363e-14
2.166e-15
1.74679e-20
2.14996e-24
2.41291e-29
5.39858e-32
8.50325e-35
1.29019e-37
1.75274e-40
1.16933e-43
-3.15878e-42
-7.91142e-40
-1.27758e-37
-1.43149e-35
-1.14784e-33
-6.96384e-32
-3.55526e-30
2.02027e-13
1.80989e-12
1.81211e-11
2.13545e-12
4.63051e-17
6.36436e-21
3.11461e-26
2.45164e-29
6.82481e-32
4.94094e-34
1.08989e-36
5.09384e-40
-3.35178e-40
-1.67356e-37
-2.96069e-35
-3.38223e-33
-2.69802e-31
-1.59456e-29
-7.43015e-28
1.17068e-10
4.42173e-11
1.53793e-08
6.54875e-11
2.5966e-14
5.67016e-18
1.80743e-23
7.19815e-27
1.99478e-28
1.51973e-30
6.13693e-35
6.14753e-36
4.07934e-37
-1.04149e-35
-3.21561e-33
-4.08734e-31
-3.33339e-29
-1.94136e-27
-8.25531e-26
7.53807e-08
3.22519e-09
0.000152181
1.6921e-06
6.54248e-11
8.67051e-15
1.3058e-21
1.09875e-22
4.20876e-24
1.1397e-25
1.46397e-27
1.9494e-31
1.68132e-30
6.8475e-34
-1.31287e-31
-2.55981e-29
-2.26088e-27
-1.30779e-25
-4.89099e-24
2.68933e-05
5.0488e-07
0.000179294
8.32991e-05
1.35574e-09
1.46699e-13
3.22994e-19
5.17546e-20
1.94308e-21
2.02177e-23
1.4758e-26
9.60275e-29
3.58225e-28
6.4492e-30
0
-7.36293e-28
-7.94533e-26
-3.29064e-24
0
1
1
1
1
1
1
1
1
1
1
1
1
1
1
1
1
1
1
1
1
1
1
1
1
1
0.999989
0.999997
0.999998
0.999999
0.999999
0.999999
0.999999
0.999999
1
1
1
1
1
1
1
1
1
1
1
1
1
0.999997
0.998195
0.898515
0.959325
0.949773
0.950328
0.94638
0.94263
0.94093
0.945246
0.951078
0.960198
0.978561
0.995842
0.999994
1
1
1
1
1
1
1
1
0.146571
1.18059e-05
-1.86857e-42
0
-2.17432e-28
-2.36316e-14
-4.30055e-14
-1.32015e-14
3.86792e-13
4.62616e-09
1.78514e-06
1.64941e-05
1.44938e-05
1.4007e-05
0.00440189
0.0715076
0.246258
0.663509
1
1
1
1
1
-8.18126e-14
-1.11017e-15
-1.3319e-15
-1.26765e-14
-8.7285e-14
-3.0439e-13
-2.92654e-13
-1.69868e-30
2.12874e-12
2.90012e-05
0.000461065
0.00045581
0.000408077
0.000257604
0.000184124
0.000213384
1.08738e-07
1.23324e-05
0.000243548
0.131915
0.899996
0.999999
1
-9.70199e-14
-1.3091e-15
-3.33195e-15
-2.89373e-14
-1.5359e-13
-4.10311e-13
-1.3391e-13
1.88248e-12
2.85579e-13
6.7916e-07
0.000220476
2.51885e-07
4.63673e-08
4.32258e-08
4.78122e-08
3.95736e-08
3.93306e-08
6.31636e-05
0.000109333
0.000144034
0.000331803
0.0706027
0.780399
-3.0657e-15
-2.11269e-16
-2.43788e-15
-2.51604e-14
-1.25052e-13
-2.8283e-13
6.47139e-13
7.9953e-12
7.67507e-12
3.8367e-12
1.38777e-11
1.07367e-05
8.79758e-06
4.41162e-08
7.68343e-07
5.80608e-07
4.032e-08
4.77793e-08
0.000483321
0.00048784
6.86554e-05
2.83683e-05
0.000225603
-1.03712e-18
-3.47259e-17
-1.19731e-15
-1.43892e-14
-6.91343e-14
-1.28537e-13
9.73216e-13
7.92629e-12
6.43772e-12
1.37706e-09
7.769e-09
2.24378e-10
7.88165e-08
5.52056e-08
1.33878e-07
4.45507e-08
1.74081e-06
5.54161e-08
0.000335955
0.000488515
3.34116e-05
6.11896e-07
2.15702e-06
-2.54414e-19
-8.28727e-18
-5.08164e-16
-6.15658e-15
-2.82859e-14
-4.21281e-14
2.2016e-13
3.15517e-12
2.03776e-12
1.45345e-08
2.06887e-08
9.89617e-10
3.18242e-12
1.02777e-07
5.2338e-08
1.36185e-10
1.66714e-06
1.64641e-09
0.000426494
0.000295609
3.07893e-07
1.41213e-08
4.89736e-08
-1.50257e-19
-2.83322e-18
-1.75802e-16
-2.06867e-15
-8.78294e-15
-1.07616e-14
1.80373e-14
5.03821e-13
9.79683e-12
4.32491e-13
4.27512e-13
2.25171e-12
3.65834e-12
6.49692e-13
1.12141e-08
1.47777e-11
1.42791e-11
3.14757e-09
3.00965e-05
0.000358728
1.14632e-08
3.75981e-09
1.34021e-05
-5.6803e-20
-8.46719e-19
-4.95463e-17
-5.42893e-16
-2.06008e-15
-2.21656e-15
5.41639e-16
3.78672e-14
4.12672e-13
4.45606e-13
4.4834e-13
1.89746e-12
3.94767e-12
1.3364e-12
3.87384e-13
7.89976e-12
1.44993e-11
4.9191e-11
2.07448e-10
0.000255395
3.55206e-06
1.21525e-09
0.000632231
-1.43426e-20
-2.00944e-19
-1.08503e-17
-1.08232e-16
-3.57455e-16
-3.4836e-16
-1.88335e-17
1.4195e-15
1.79282e-14
7.28409e-14
8.55155e-14
3.14133e-13
8.7937e-13
5.82282e-13
3.09665e-13
1.76456e-12
4.11342e-12
4.29401e-11
7.42826e-10
1.06306e-09
2.83807e-07
7.76008e-10
8.08706e-08
-2.53716e-21
-3.51729e-20
-1.75556e-18
-1.57644e-17
-4.4524e-17
-3.92001e-17
-6.03629e-18
3.98632e-17
4.54188e-16
2.3491e-15
3.22894e-15
1.93635e-14
5.29423e-14
3.22952e-14
3.27362e-14
1.49033e-13
2.60266e-13
2.1249e-13
1.76427e-11
3.82657e-15
1.89044e-08
1.05331e-09
1.0604e-10
-3.12429e-22
-4.28788e-21
-1.99336e-19
-1.60169e-18
-3.8416e-18
-3.06235e-18
-6.72662e-19
8.50502e-19
1.09114e-17
4.42002e-17
6.91414e-17
4.97031e-16
1.33431e-15
8.85445e-16
1.46721e-15
1.08785e-14
2.42839e-14
2.44689e-14
2.10093e-14
5.62917e-15
2.50856e-15
7.06701e-11
2.44438e-11
-2.53884e-23
-3.44165e-22
-1.49841e-20
-1.07311e-19
-2.19844e-19
-1.57724e-19
-3.97573e-20
1.12487e-20
1.69179e-19
5.63379e-19
9.36772e-19
5.02476e-18
1.27024e-17
9.976e-18
2.42065e-17
1.78136e-16
4.4478e-16
5.02037e-16
1.70871e-16
2.4923e-18
0
-3.80037e-20
2.6095e-15
-1.23594e-24
-1.69173e-23
-6.90922e-22
-4.40036e-21
-7.83214e-21
-5.09843e-21
-1.30986e-21
7.22996e-23
1.6193e-21
5.46655e-21
9.39871e-21
2.17317e-20
4.16898e-20
3.94315e-20
1.46146e-19
1.17368e-18
3.12717e-18
3.79004e-18
1.80124e-18
3.88819e-20
-2.13605e-20
-1.15653e-19
-3.1605e-19
-3.07268e-26
-4.55632e-25
-1.74353e-23
-9.87668e-23
-1.5565e-22
-9.35066e-23
-2.29226e-23
-6.00335e-27
1.1232e-23
3.66519e-23
6.93683e-23
8.94505e-23
8.78537e-23
2.69274e-23
1.00542e-22
1.7802e-21
5.43579e-21
6.99575e-21
2.92507e-21
-3.35146e-21
-2.72576e-20
-1.15314e-19
-3.41286e-19
-2.88583e-28
-5.51415e-27
-1.97268e-25
-9.9622e-25
-1.40518e-24
-7.7641e-25
-1.72894e-25
-1.46645e-27
5.27322e-26
1.66207e-25
2.9179e-25
7.68748e-26
-2.16455e-24
-2.7754e-23
-1.04669e-22
-2.14754e-22
-3.21477e-22
-4.15753e-22
-6.7455e-22
-2.9194e-21
-1.69181e-20
-7.21823e-20
-2.19172e-19
-4.24121e-31
-1.89938e-29
-6.33911e-28
-2.85848e-27
-3.60296e-27
-1.77256e-27
-3.05979e-28
1.13185e-29
1.24556e-28
-6.24796e-29
-1.41885e-26
-1.8055e-25
-1.03124e-24
-3.98719e-24
-1.06282e-23
-2.0142e-23
-2.93727e-23
-3.99207e-23
-1.44957e-22
-1.26737e-21
-7.98515e-21
-3.29683e-20
-9.46105e-20
-1.92007e-37
-8.89112e-38
-6.76582e-36
-3.35199e-34
-7.81401e-33
3.39959e-32
-1.99301e-31
-1.15988e-30
-1.4775e-29
-3.60052e-28
-5.44208e-27
-3.7283e-26
-1.36835e-25
-3.16235e-25
-5.21448e-25
-6.73048e-25
-7.77123e-25
-3.10178e-24
-5.6265e-23
-6.08941e-22
-3.56906e-21
-1.29325e-20
-3.06813e-20
-6.97954e-40
-3.67743e-39
-7.08845e-37
-3.70001e-35
-9.21331e-34
-1.18277e-32
-8.08862e-32
-5.11501e-31
-5.19226e-30
-6.89027e-29
-6.25722e-28
-3.04783e-27
-8.77148e-27
-1.69579e-26
-2.43834e-26
-2.8368e-26
-5.13913e-26
-1.30073e-24
-3.13356e-23
-3.30938e-22
-1.75431e-21
-5.32962e-21
-8.84606e-21
-1.70899e-42
-2.08014e-40
-4.69648e-38
-2.56134e-36
-6.73132e-35
-1.00437e-33
-9.05339e-33
-6.74305e-32
-5.86567e-31
-5.27446e-30
-3.27172e-29
-1.20239e-28
-2.82257e-28
-4.69201e-28
-6.00853e-28
-7.26372e-28
-1.22582e-26
-7.19302e-25
-1.82348e-23
-1.84819e-22
-8.98783e-22
-2.3272e-21
-2.4166e-21
-5.35665e-44
-7.50908e-42
-1.76858e-39
-1.00084e-37
-2.74375e-36
-4.31809e-35
-4.43578e-34
-3.52234e-33
-2.60258e-32
-1.6871e-31
-7.60426e-31
-2.19784e-30
-4.32135e-30
-6.27321e-30
-7.35629e-30
-4.67784e-29
-5.78546e-27
-3.84724e-25
-9.62708e-24
-9.13575e-23
-4.03818e-22
-8.73783e-22
-3.56488e-22
-6.91102e-46
-1.30906e-43
-3.1616e-41
-1.83822e-39
-5.18332e-38
-8.34426e-37
-8.74948e-36
-6.70143e-35
-4.08021e-34
-1.92493e-33
-6.4163e-33
-1.48148e-32
-2.47762e-32
-3.1931e-32
-8.43445e-32
-1.59455e-29
-2.59929e-27
-1.78644e-25
-4.25259e-24
-3.67491e-23
-1.42117e-22
-2.05668e-22
5.18319e-22
-2.10406e-48
-7.6419e-46
-1.83606e-43
-1.07008e-41
-3.02787e-40
-4.81355e-39
-4.78744e-38
-3.22861e-37
-1.53884e-36
-5.24611e-36
-1.29715e-35
-2.39325e-35
-3.41656e-35
-6.43984e-35
-1.54998e-32
-5.61195e-30
-9.98304e-28
-6.89062e-26
-1.51902e-24
-1.16029e-23
-3.54226e-23
8.56403e-24
1.10668e-20
-5.8163e-53
-4.76995e-49
-9.46578e-47
-4.58358e-45
-1.09169e-43
-1.47629e-42
-1.24339e-41
-6.95634e-41
-2.71001e-40
-7.62835e-40
-1.60097e-39
-2.58371e-39
-8.15098e-39
-5.4607e-36
-3.99671e-33
-1.66406e-30
-3.17088e-28
-2.16112e-26
-4.31887e-25
-2.80172e-24
-4.26625e-24
4.88636e-22
5.44776e-20
-5.52616e-60
-1.18807e-55
-2.45282e-53
-1.30346e-51
-3.52401e-50
-5.54991e-49
-5.54552e-48
-3.72492e-47
-1.75516e-46
-6.01731e-46
-1.68381e-45
-3.5513e-43
-6.99678e-40
-9.64079e-37
-8.47771e-34
-4.03016e-31
-8.14563e-29
-5.4699e-27
-9.80192e-26
-5.00412e-25
7.39655e-25
9.56065e-22
1.37911e-19
-3.43406e-69
-2.35215e-63
-5.12914e-61
-2.8768e-59
-8.15024e-58
-1.33754e-56
-1.38841e-55
-9.66766e-55
-4.99212e-54
-1.90648e-51
-9.03009e-48
-3.13335e-44
-7.79245e-41
-1.34305e-37
-1.43484e-34
-7.76261e-32
-1.66632e-29
-1.16239e-27
-1.9247e-26
-6.54958e-26
1.44049e-24
1.09186e-21
3.79232e-19
-1.32347e-80
-3.45579e-73
-9.88261e-71
-7.30483e-69
-2.70627e-67
-5.74271e-66
-1.21137e-64
-7.45821e-61
-8.67768e-57
-7.27628e-53
-4.43441e-49
-1.98167e-45
-6.43784e-42
-1.43456e-38
-1.87789e-35
-1.1561e-32
-2.76095e-30
-2.52925e-28
-4.37458e-27
-8.68983e-27
6.19223e-25
7.8741e-22
8.81206e-19
-3.67867e-86
-2.26143e-81
-1.26583e-78
-1.95358e-76
-1.63447e-74
-1.42751e-71
-4.26439e-67
-9.32635e-63
-1.45545e-58
-1.65008e-54
-1.3739e-50
-8.48753e-47
-3.82244e-43
-1.13298e-39
-1.82322e-36
-1.31262e-33
-4.25959e-31
-7.63815e-29
-1.44199e-27
-2.19495e-27
2.20675e-25
4.13898e-22
1.27528e-18
-7.86994e-93
-2.29152e-87
-1.83842e-84
-4.27903e-82
-5.07757e-79
-3.02711e-74
-1.45929e-69
-4.90332e-65
-1.16309e-60
-1.99148e-56
-2.51677e-52
-2.36025e-48
-1.56087e-44
-6.25651e-41
-1.25912e-37
-1.22178e-34
-8.10314e-32
-2.80733e-29
-5.06713e-28
-6.56949e-28
5.23915e-26
1.41734e-22
1.00769e-18
-8.09915e-101
-3.50599e-94
-2.43085e-90
-1.72909e-85
-7.88552e-81
-2.27167e-76
-5.07581e-72
-1.27673e-67
-4.04758e-63
-1.16066e-58
-2.54932e-54
-4.02402e-50
-4.07069e-46
-2.25016e-42
-6.32865e-39
-1.21419e-35
-1.83808e-32
-8.99339e-30
-1.41192e-28
-1.53048e-28
8.35745e-27
3.04418e-23
4.11242e-19
-2.44692e-103
-2.04519e-97
-5.82187e-92
-5.42666e-87
-2.72309e-82
-8.31424e-78
-1.65112e-73
-2.20884e-69
-2.29604e-65
-3.87865e-61
-1.34593e-56
-3.78037e-52
-6.08179e-48
-5.18639e-44
-2.96277e-40
-1.42787e-36
-3.55975e-33
-2.14215e-30
-2.75212e-29
-2.58219e-29
8.09438e-28
3.79861e-24
8.8066e-20
-8.90219e-106
-2.03753e-99
-6.65917e-94
-7.20903e-89
-4.16427e-84
-1.45777e-79
-3.31658e-75
-5.03295e-71
-5.16392e-67
-3.72294e-63
-4.28167e-59
-1.66583e-54
-4.91033e-50
-9.82784e-46
-1.56257e-41
-1.39313e-37
-4.78409e-34
-3.48331e-31
-3.41949e-30
-5.06274e-30
9.82011e-30
2.6303e-25
1.14133e-20
-1.81471e-109
-4.0806e-102
-1.77086e-96
-2.49321e-91
-1.82374e-86
-8.01127e-82
-2.28674e-77
-4.37083e-73
-5.68075e-69
-4.96623e-65
-3.00185e-61
-3.43489e-57
-2.70536e-52
-1.85608e-47
-6.08973e-43
-8.25294e-39
-3.93573e-35
-3.52707e-32
-2.45968e-31
-2.45017e-30
-3.24508e-29
9.55706e-27
1.14535e-21
-7.99154e-115
-5.53755e-106
-4.65269e-100
-1.09262e-94
-1.25642e-89
-8.48811e-85
-3.68184e-80
-1.06975e-75
-2.09245e-71
-2.74477e-67
-2.35956e-63
-1.51721e-59
-1.12029e-54
-1.78495e-49
-1.079e-44
-2.36197e-40
-1.716e-36
-1.96332e-33
-1.2196e-32
-1.28558e-30
-2.85856e-29
1.93291e-28
1.2897e-22
-4.57601e-122
-6.05615e-111
-1.48689e-104
-7.09732e-99
-1.49525e-93
-1.80686e-88
-1.38773e-83
-7.02617e-79
-2.38268e-74
-5.32248e-70
-7.64717e-66
-6.81938e-62
-1.09549e-57
-3.79425e-52
-5.24516e-47
-2.34808e-42
-3.19831e-38
-5.13165e-35
-1.33207e-33
-4.63589e-31
-1.32868e-29
7.65932e-29
6.88242e-23
-2.64118e-132
-5.11159e-117
-5.48397e-110
-6.16892e-104
-2.66234e-98
-6.27146e-93
-9.3339e-88
-9.2408e-83
-6.10959e-78
-2.63872e-73
-7.23902e-69
-1.20912e-64
-1.16732e-60
-3.27647e-56
-2.65951e-50
-4.65135e-45
-1.86578e-40
-6.23944e-37
-1.84461e-34
-1.04192e-31
-3.82245e-30
1.79098e-28
1.01493e-22
-9.06371e-150
-1.6445e-124
-1.10934e-116
-3.30056e-110
-3.16234e-104
-1.59742e-98
-5.20048e-93
-1.15956e-87
-1.78277e-82
-1.85533e-77
-1.22921e-72
-4.92306e-68
-1.1022e-63
-1.31673e-59
-2.16337e-55
-6.34272e-49
-2.32045e-43
-5.69353e-39
-1.30111e-35
-1.27438e-32
-6.62629e-31
8.81606e-29
1.59881e-24
-7.80292e-180
-2.72835e-134
-2.35948e-125
-2.3739e-118
-6.06733e-112
-7.75738e-106
-6.41632e-100
-3.9381e-94
-1.78649e-88
-5.80001e-83
-1.2778e-77
-1.65397e-72
-1.13956e-67
-3.76021e-63
-7.06309e-59
-6.51887e-54
-5.95056e-47
-1.65728e-41
-2.91807e-37
-6.37159e-34
-5.79917e-32
-1.21648e-45
8.82089e-26
-9.56772e-210
-4.45561e-148
-2.19243e-137
-1.13569e-129
-1.0402e-122
-4.4314e-116
-1.22514e-109
-2.54624e-103
-4.15477e-97
-5.21291e-91
-4.48847e-85
-2.45395e-79
-7.19916e-74
-1.005e-68
-6.00121e-64
-5.13779e-59
-1.62052e-52
-7.57599e-46
-3.41177e-40
-5.65291e-36
-1.64562e-33
3.52431e-32
1.39617e-26
0
-8.45475e-172
-8.2107e-158
-4.68542e-149
-2.99968e-141
-8.36588e-134
-1.50422e-126
-2.06096e-119
-2.26497e-112
-1.98919e-105
-1.32645e-98
-5.89246e-92
-1.52415e-85
-1.86969e-79
-9.86722e-74
-1.40224e-68
-1.19449e-60
-1.32589e-53
-2.56182e-47
-1.116e-41
-9.77338e-37
-1.40302e-31
-1.25996e-26
1
0.961918
0.449276
0.0125772
1
1
0.999993
1
1
1
1
1
1
1
1
1
1
1
1
1
0.999986
1
1
1
0.0166803
0.166207
0.513212
0.931445
4.12524e-06
2.123e-05
0.000131205
0.000354361
1.84774e-07
2.32783e-06
0.000725217
0.00012349
0.000954474
0.00107299
0.00106419
3.41452e-05
0.00106629
0.000279909
8.46706e-07
7.28731e-08
2.0991e-07
5.53471e-08
9.47038e-09
3.04578e-09
2.76375e-10
1.05177e-10
3.10152e-10
1.42656e-09
6.34972e-13
1.33598e-12
4.70849e-13
4.18806e-12
1.38981e-14
5.46158e-15
9.11927e-16
1.10749e-16
-1.10555e-35
2.67533e-20
1.01744e-19
-1.18915e-34
-6.19172e-19
-8.39323e-19
-1.09188e-18
-1.35733e-18
-4.03648e-19
-5.53111e-19
-7.27753e-19
-9.19922e-19
-1.64762e-19
-2.17491e-19
-2.71706e-19
-3.17399e-19
-4.27813e-20
-4.63987e-20
-4.16171e-20
-2.15876e-20
-5.04384e-21
2.61488e-22
2.98909e-20
1.85698e-19
6.46175e-21
3.86918e-20
1.64623e-19
6.14423e-19
1.49995e-20
6.57402e-20
2.62057e-19
9.64589e-19
3.13796e-20
1.23917e-19
4.68671e-19
1.6526e-18
3.69198e-19
1.37768e-18
4.92513e-18
1.53907e-17
3.21949e-18
1.31713e-17
4.99515e-17
1.61475e-16
2.11375e-17
9.25151e-17
4.1678e-16
1.4434e-15
1.09888e-16
4.89212e-16
1.58094e-15
5.31016e-14
3.34616e-16
1.56733e-15
4.2276e-15
1.18892e-12
5.63224e-16
3.13009e-15
1.05103e-12
3.40216e-12
6.02982e-16
2.02629e-14
3.52751e-12
1.65353e-12
3.27229e-16
4.52846e-14
2.96902e-12
7.49425e-13
9.12797e-17
2.39357e-14
6.99681e-13
6.79305e-13
1.28938e-17
5.70071e-15
4.94708e-13
5.32083e-13
1.28769e-18
2.62549e-15
9.34307e-13
7.29858e-13
5.08142e-19
3.98902e-15
1.06815e-12
4.2939e-13
7.75396e-19
5.42383e-15
1.82118e-12
1.55704e-09
1.38482e-18
4.46408e-15
2.99181e-13
7.87947e-11
4.66879e-20
1.38108e-15
1.00447e-12
3.48672e-11
5.23284e-21
8.27128e-17
4.96496e-13
2.8638e-11
-5.10306e-21
9.60279e-18
2.94191e-14
2.05907e-11
-9.20528e-23
-1.1862e-21
-7.6289e-21
-9.34946e-21
0.000560727
2.43679e-05
2.42484e-05
1.37773e-05
5.04879e-10
4.96815e-14
2.2537e-15
2.85697e-16
1.58506e-17
9.37554e-20
7.04071e-24
3.4858e-26
3.88727e-25
9.63793e-27
1.43752e-27
0
3.95506e-40
2.16536e-23
2.54781e-21
0.0121474
0.0140713
0.000817712
9.8068e-09
4.29993e-12
1.00903e-13
1.28982e-13
9.6183e-14
3.05941e-14
5.69757e-15
3.76683e-16
3.02764e-18
3.05909e-21
1.82262e-22
1.80312e-24
1.60687e-24
5.56631e-22
3.50779e-19
2.55997e-17
0.103393
0.00299211
7.02296e-09
2.67856e-11
2.11489e-13
4.21607e-14
1.5142e-13
5.11221e-13
4.92104e-13
1.50297e-13
1.38897e-14
1.37264e-14
2.72583e-17
6.44857e-17
8.96944e-21
1.58348e-21
2.10261e-18
1.42564e-15
5.13488e-14
0.489411
0.0933256
7.39977e-09
1.84289e-05
2.53023e-15
3.03263e-15
-7.54543e-16
-7.71332e-14
2.70657e-13
3.34657e-10
7.67806e-13
1.0155e-13
6.04451e-14
4.20607e-14
1.82116e-15
1.50853e-17
2.79856e-15
8.23585e-13
4.96486e-11
1.00001
0.999276
0.975068
0.680798
2.53043e-15
2.40245e-15
1.54588e-12
1.34249e-09
3.07672e-05
6.10102e-05
9.61896e-08
8.94898e-09
6.15337e-14
7.28726e-13
3.96757e-12
1.29996e-14
6.26378e-13
1.93369e-10
2.10042e-08
1
0.999988
0.999982
0.999948
0.999283
0.768725
0.354195
0.701897
0.625347
0.000330953
0.0809498
-6.37154e-08
4.09949e-11
1.09459e-07
1.48387e-08
6.92974e-12
5.04657e-11
3.46468e-08
3.90729e-06
0.999994
0.999988
0.999988
0.999987
0.999983
0.999923
0.999787
0.999881
0.99993
0.999591
0.984039
0.573646
1.014e-06
1.1081e-05
1.90229e-05
5.73795e-09
4.34592e-09
3.60794e-06
0.000681526
0.00528546
0.26731
0.717907
0.985355
0.999982
0.99995
0.999948
0.999961
0.999962
0.999961
0.999948
0.999885
0.999075
0.978979
0.137962
-5.13939e-08
1.65278e-07
1.10914e-05
0.0249822
0.000116691
0.000292582
9.86728e-05
0.00030241
0.0134621
0.113658
0.263727
0.406821
0.59356
0.822329
0.999948
0.999883
0.999764
0.999644
0.999387
0.162974
6.59763e-06
1.42892e-05
0.000785089
0.000566732
0.000449018
1.42729e-06
7.89677e-07
1.8397e-06
6.30413e-06
1.51413e-05
2.31335e-05
3.55033e-05
0.000120568
0.000930502
0.149593
0.794298
0.999569
0.99946
0.999008
0.213253
4.81011e-05
0.000190602
3.32985e-06
1.9585e-06
7.13339e-08
3.75439e-09
4.61719e-09
1.5e-08
3.41001e-08
3.57925e-08
4.03412e-08
1.55924e-07
7.59803e-07
8.0957e-06
0.000107208
0.0514247
0.902211
0.997972
0.995572
0.310808
0.00146597
7.0464e-10
7.50901e-07
8.45816e-08
5.52019e-10
2.1089e-10
1.39739e-10
9.91384e-11
8.25082e-11
4.20673e-11
1.23795e-10
1.65683e-09
2.17757e-08
1.90036e-07
3.24731e-06
0.000269946
0.380114
0.99282
0.988968
0.988572
2.24899e-10
3.05692e-11
1.57888e-08
9.68607e-10
1.09819e-10
5.62861e-11
1.61459e-11
4.20146e-12
1.27677e-12
2.85042e-13
3.99418e-12
8.71186e-11
6.5806e-10
2.20959e-09
8.47196e-08
4.19617e-05
0.206102
0.987598
0.988572
1.90897e-11
1.29174e-12
7.32352e-13
7.41704e-11
1.11858e-11
1.2181e-12
5.37928e-13
1.58418e-13
7.86755e-14
4.09868e-14
5.74495e-14
4.73217e-13
6.06367e-12
3.48705e-11
9.61903e-11
2.13825e-08
4.0128e-05
0.896602
0.990139
3.57178e-15
8.54829e-15
1.33897e-15
2.95699e-14
5.83571e-14
6.11349e-15
1.73781e-15
1.5869e-15
4.48591e-15
2.10342e-14
5.86594e-14
1.53275e-13
4.11697e-13
2.36882e-12
3.26642e-12
3.86839e-09
1.71983e-05
0.865793
0.990427
7.52398e-35
1.46439e-18
1.21426e-18
2.0459e-17
1.08777e-16
9.86046e-17
3.18891e-16
1.37206e-15
5.25037e-15
1.99827e-14
7.37358e-14
2.68128e-13
5.0102e-13
1.67214e-12
2.40557e-12
9.47408e-08
0.000173636
0.967418
0.990453
-1.71065e-18
-1.75816e-18
-1.04012e-18
1.28138e-20
9.45407e-18
7.60634e-17
5.07144e-16
2.17276e-15
7.98404e-15
2.62544e-14
8.00409e-14
2.74915e-13
1.03972e-12
3.33368e-12
3.30697e-12
4.96926e-10
0.000118574
0.950701
0.990511
-1.17954e-18
-1.13711e-18
7.97163e-18
-3.31628e-16
-2.47344e-15
-6.30698e-15
-7.77761e-15
-1.78571e-15
1.72011e-14
6.29592e-14
1.2331e-13
2.9219e-13
1.00139e-12
5.38617e-12
8.40282e-12
-1.4062e-09
4.72445e-05
0.939625
0.671278
-3.1345e-19
-7.12975e-20
1.88219e-16
-2.62198e-15
-3.1368e-14
-1.02667e-13
-1.67281e-13
-1.57614e-13
-7.43016e-14
6.47627e-14
4.63339e-13
6.51609e-13
1.07662e-12
4.58866e-12
3.4434e-11
1.50738e-11
0.00323588
0.871671
0.168603
2.65233e-20
1.84398e-18
7.05906e-17
5.63643e-15
-3.20392e-14
-2.38515e-13
-5.24731e-13
-5.89801e-13
-3.79276e-13
-9.03167e-14
1.86454e-14
7.66087e-13
2.82159e-12
5.67782e-12
3.33201e-11
4.15495e-09
2.14338e-05
0.615277
0.167229
1.11074e-18
1.84183e-17
2.45393e-16
4.98735e-15
9.70683e-14
2.9598e-13
-3.81092e-14
-4.72001e-13
5.9638e-07
9.52047e-07
4.19271e-11
1.29495e-13
-1.0894e-12
4.81296e-13
2.4949e-11
-2.63227e-11
1.17978e-06
0.34178
0.853672
3.21234e-18
6.1509e-17
1.60651e-15
2.47016e-14
2.91114e-13
9.47589e-13
6.74183e-13
2.68738e-14
1.07781e-08
1.14804e-08
0.000374448
0.000684203
2.9189e-08
-1.3191e-12
2.30073e-11
5.72445e-11
2.27781e-05
0.56014
0.720802
5.11142e-18
9.2769e-17
2.17346e-15
4.21292e-14
3.29599e-13
8.45487e-12
2.11175e-10
7.16978e-10
1.0962e-10
2.05156e-09
0.000773856
0.000781051
0.000187239
1.37322e-09
5.35559e-11
6.24284e-11
3.22901e-05
0.0126636
0.419023
6.98057e-18
1.36741e-16
1.5107e-15
1.06001e-13
2.36511e-12
1.86188e-12
5.71873e-09
1.44903e-08
9.47601e-10
0.000119829
0.000222272
0.00078084
4.39502e-05
0.00217141
-1.81255e-09
-4.7277e-10
1.07485e-07
1.17004e-05
0.367958
-4.09321e-16
1.12879e-14
7.95567e-13
8.54892e-13
7.70218e-13
2.32992e-12
7.72936e-11
3.98091e-10
4.86836e-08
8.17649e-06
1.27276e-06
6.58116e-06
0.000317938
0.00367861
0.00367861
0.000127276
2.94349e-06
8.26302e-06
0.391189
-2.29292e-14
5.66398e-13
1.13603e-11
5.7588e-11
4.24357e-11
3.15616e-11
5.82833e-11
7.18234e-11
6.50503e-07
9.90015e-08
1.31281e-07
6.45779e-07
0.000677787
0.000637278
0.00365929
0.00240448
9.69591e-06
1.04581e-05
0.341639
-2.10012e-17
2.54021e-10
3.25754e-10
8.89951e-10
2.56766e-10
1.90395e-10
1.21901e-10
3.34528e-09
1.1854e-08
1.13803e-08
5.74856e-05
0.002806
0.00283607
0.000289384
0.0035364
0.00352306
1.64618e-05
1.67328e-05
0.453918
-7.39877e-14
3.33383e-08
7.39277e-08
1.98471e-07
1.14073e-09
3.0127e-10
1.43751e-10
1.65676e-08
4.95011e-09
0.000638752
0.00282524
0.00193658
5.82994e-05
1.36415e-05
0.00303079
0.00347458
1.16981e-05
1.17096e-05
0.426392
-5.44719e-11
1.78849e-06
2.20088e-05
0.000123253
2.05772e-07
1.3208e-08
7.61559e-10
1.71795e-09
3.48961e-09
3.45161e-06
0.000617019
5.98411e-05
8.74325e-06
6.26366e-06
0.00345368
0.00347571
1.9639e-05
0.000543815
0.277391
-5.7012e-09
0.000100928
0.00233722
2.23132e-06
0.000396621
2.29367e-06
1.05659e-07
6.64211e-09
4.4197e-09
0.000117381
0.00126296
2.21758e-05
6.09365e-06
4.19184e-05
0.003364
7.16047e-05
3.51396e-06
3.52647e-06
0.356817
-7.09085e-08
0.0263194
1.64377e-06
2.81425e-06
0.000428928
2.75423e-07
3.26411e-08
9.9347e-09
0.000569874
0.00174581
8.12644e-05
7.29294e-06
6.86012e-06
0.000510968
0.000119842
1.84398e-05
6.27095e-06
4.19388e-05
0.414443
1.75919e-05
0.0278164
0.00566424
0.0197923
0.0290622
0.0291461
5.69532e-07
0.000486544
0.00182797
0.000178082
2.39469e-05
6.49686e-06
2.68507e-05
3.08081e-05
3.78759e-05
2.89436e-05
3.53659e-05
0.174944
0.143588
1.00581e-07
0.010939
0.0172757
5.29085e-07
5.93253e-08
4.63258e-08
0.000980249
0.00170949
0.000334889
9.91672e-05
0.000365374
6.49686e-06
7.14356e-06
1.57009e-05
5.08236e-05
0.037191
0.194365
0.195192
0.0241171
3.58045e-09
5.71501e-05
1.01517e-07
4.78964e-07
3.12645e-07
2.97873e-08
4.83999e-06
0.00167144
0.000120481
0.000193415
0.000311208
6.69941e-06
1.89866e-05
0.00737812
0.169439
0.181782
0.1012
0.00435391
0.0130548
4.55542e-10
0.000544712
0.00039028
5.40881e-05
2.61731e-08
2.39565e-08
2.28112e-07
0.00168448
0.000233468
0.000613975
6.05458e-05
4.86622e-05
0.0460655
0.146558
0.0577648
0.00050237
0.000155775
0.000110295
0.00258915
6.71416e-07
0.000144451
0.00010204
3.37934e-05
3.08065e-05
1.74945e-05
0.000253531
0.000223357
0.000667355
0.000648343
0.000100958
0.00247309
0.132386
0.00553462
3.92839e-05
5.67724e-06
3.72539e-06
6.47647e-06
0.00210123
5.35504e-07
0.000117201
7.08279e-06
8.72143e-06
0.000336967
0.000336967
3.60404e-05
0.000621298
0.000672592
0.00031368
0.00013944
0.10478
0.013676
2.22553e-05
7.66222e-07
1.5724e-07
1.09769e-07
5.13203e-07
0.0183524
1.9593e-08
7.99981e-06
0.0339563
0.0269088
3.03865e-05
0.000125509
2.38707e-05
5.81466e-05
0.00020146
6.36046e-05
6.36047e-05
0.131618
0.000258828
1.85573e-05
6.16102e-07
6.08085e-08
5.62845e-08
8.19767e-08
0.0527554
3.9154e-09
1.19053e-06
0.00862644
0.0384254
0.00309799
2.10635e-05
8.67352e-05
0.000174339
6.84519e-05
0.00239097
0.138862
0.143633
0.00175744
0.000153775
9.81731e-06
4.56198e-07
6.45233e-08
2.80972e-06
0.110357
5.3451e-09
0.000125621
0.00299655
0.00125349
9.40912e-05
2.07378e-05
0.000103923
4.26837e-05
0.134764
0.153071
0.151978
0.00905014
5.80296e-05
6.44074e-05
5.87699e-06
5.78466e-07
2.04193e-07
0.00281986
0.0966123
5.45075e-09
1.66438e-06
0.0153785
3.84933e-06
2.31058e-05
0.00011576
0.000112945
1.55949e-05
0.0390084
0.152772
0.00704
-3.59999e-07
8.89632e-07
0.000211001
0.000162114
1.62792e-06
0.000553152
0.0809799
0.0758526
-1.00641e-12
-3.62297e-08
0.0133174
4.56804e-07
8.9598e-07
9.50117e-05
3.3657e-05
8.10955e-06
0.000127525
0.000649489
4.38138e-07
-2.0992e-11
6.13819e-08
0.000222656
0.000222936
7.42179e-06
0.0109588
0.0673336
0.00018304
1
1
1
1
1
1
1
1
1
1
1
1
1
1
1
1
1
1
0.922129
0.85815
0.92998
0.998868
0.999297
1
1
1
1
1
1
1
1
1
1
1
1
1
1
1
1
1
1
1
0.999993
0.999954
0.904389
0.999515
1
1
1
1
1
1
1
1
1
1
1
1
1
1
1
1
1
1
1
1
0.993408
0.838894
0.99099
1
1
1
1
1
1
1
1
1
1
1
1
1
1
1
1
1
1
1
1
1
0.839078
0.994016
1
1
1
1
1
1
1
1
1
1
1
1
1
1
1
1
1
1
1
1
1
0.943407
0.999871
1
1
1
1
1
1
1
1
1
1
1
1
1
1
1
1
1
1
1
1
1
0.999993
1
1
1
1
1
1
1
1
1
1
1
1
1
1
1
1
1
1
1
1
1
1
1
1
1
1
1
1
1
1
1
1
1
1
1
1
1
1
1
1
1
1
1
1
1
1
1
2.37434e-28
1.5248e-26
1.75658e-28
2.17095e-32
3.96263e-36
1.61571e-40
6.85153e-45
1.89495e-46
2.06597e-49
6.19407e-53
-1.93779e-55
-5.14673e-53
-1.19555e-50
-2.19338e-48
-2.93986e-46
-2.87738e-44
-2.10619e-42
-1.39349e-40
6.46201e-58
3.06072e-24
4.31944e-22
1.16511e-22
5.449e-28
1.22811e-31
8.01934e-36
3.17393e-39
6.91909e-41
1.09649e-43
1.71134e-46
1.67636e-49
-2.47105e-49
-6.95289e-47
-1.40266e-44
-1.96703e-42
-1.9594e-40
-1.42744e-38
-9.21934e-37
7.88156e-52
5.46529e-20
2.83734e-17
9.99551e-18
5.30554e-23
1.32592e-26
1.52181e-30
9.56658e-36
7.65372e-37
1.26589e-39
1.81851e-42
3.65542e-45
-3.78949e-46
-1.04501e-43
-2.03471e-41
-2.75437e-39
-2.65186e-37
-1.86623e-35
-1.13408e-33
6.34619e-46
3.07816e-16
4.74639e-14
4.61223e-14
4.47064e-18
1.99624e-22
1.29085e-26
2.81348e-32
2.13761e-33
3.07511e-36
4.57449e-39
4.37237e-42
-1.65991e-43
-5.33569e-41
-1.05334e-38
-1.41288e-36
-1.33453e-34
-9.16606e-33
-5.26041e-31
2.47221e-41
1.01265e-13
2.25462e-12
7.65442e-12
1.23033e-14
8.20256e-19
2.88236e-23
1.33584e-29
1.00826e-30
5.7926e-33
3.08641e-35
9.45689e-41
5.8149e-40
-9.30421e-39
-2.35622e-36
-3.32567e-34
-3.15008e-32
-2.13603e-30
-1.16262e-28
3.0984e-37
3.2645e-11
1.97168e-10
1.8631e-09
1.82221e-12
5.23635e-16
3.71664e-20
3.87344e-27
1.28781e-27
2.26016e-29
3.3929e-32
1.36978e-35
1.60734e-35
-9.30849e-53
-2.16531e-34
-3.89198e-32
-3.86702e-30
-2.63495e-28
-1.36793e-26
5.25387e-33
1.18449e-08
5.09813e-05
7.43621e-05
2.52303e-09
-1.42312e-12
4.38184e-17
5.35268e-22
2.21559e-23
7.43134e-25
1.33079e-26
3.59879e-29
1.14973e-30
1.10047e-31
-2.62082e-33
-2.17826e-30
-2.55773e-28
-1.79991e-26
-8.79569e-25
5.39835e-29
1.73394e-06
6.77725e-05
0.000179294
1.85464e-07
1.8317e-11
4.90975e-16
2.15758e-19
1.02377e-20
2.34938e-22
1.07803e-24
3.96059e-28
3.26124e-28
5.63466e-29
3.46452e-30
-4.00937e-29
-8.71061e-27
-5.97383e-25
-7.25423e-24
3.47058e-25
1
1
1
1
1
1
1
1
1
1
1
1
1
1
1
1
1
1
1
1
1
1
1
1
0.999989
0.999995
0.999998
0.999999
0.999999
0.999999
0.999999
0.999999
1
1
1
1
1
1
1
1
1
1
1
1
1
1
0.999997
0.884508
0.954523
0.951684
0.950742
0.948575
0.944336
0.941614
0.942056
0.948695
0.954434
0.968639
0.988235
0.999572
0.999999
1
1
1
1
1
1
1
1
0.378219
3.24622e-08
2.84992e-23
0
0
-3.84784e-14
-2.75481e-14
0
8.44532e-11
1.1636e-07
8.51828e-06
1.55278e-05
1.40968e-05
1.40599e-05
0.0273744
0.139682
0.411397
0.976133
1
1
1
1
1
-9.92615e-15
-6.62068e-16
-4.18537e-15
-3.60245e-14
-1.84435e-13
-3.70141e-13
-1.06982e-13
4.3708e-15
1.49975e-09
0.000448907
0.000461065
0.000443943
0.000313582
0.000202767
0.000212659
0.00013368
1.56842e-06
6.22773e-05
0.0124762
0.42414
0.999977
1
1
-1.18582e-14
-1.15934e-15
-1.01497e-14
-7.1947e-14
-2.80229e-13
-4.13595e-13
4.39145e-13
1.14232e-12
3.02734e-13
0.000349542
2.20475e-10
1.42302e-07
4.28859e-08
4.28859e-08
4.33833e-08
3.93045e-08
3.93226e-08
0.000110309
0.000114523
0.00020764
0.000734486
0.29873
0.999909
-1.34786e-15
-6.13163e-16
-8.43486e-15
-6.1226e-14
-2.16069e-13
-1.93505e-13
4.16032e-12
8.29865e-12
2.03185e-12
3.83672e-12
2.73922e-11
1.0848e-05
2.18001e-07
6.38933e-07
7.6825e-07
4.46352e-08
4.07867e-08
0.000287548
0.000485514
0.000220565
2.3649e-05
6.35384e-05
0.000630398
-5.88871e-18
-2.27014e-16
-4.79009e-15
-3.46573e-14
-1.13341e-13
-3.47613e-14
4.96951e-12
6.91405e-12
2.3925e-11
9.91287e-09
6.86636e-10
1.24354e-06
4.54033e-08
3.91195e-08
1.98164e-09
1.74214e-06
1.14994e-06
4.69273e-09
0.000488271
0.000388565
1.50938e-06
8.56437e-07
4.32932e-06
-9.44953e-19
-8.19031e-17
-2.05124e-15
-1.46608e-14
-4.34118e-14
-3.60658e-15
1.64355e-12
2.60393e-12
2.03776e-12
2.05358e-08
1.44088e-08
4.15529e-12
3.10094e-08
1.02777e-07
1.71376e-09
3.63796e-07
4.48628e-07
3.78689e-10
0.000483042
4.03013e-06
5.6631e-08
2.6683e-08
9.47729e-08
-3.10653e-19
-2.86477e-17
-7.01636e-16
-4.78472e-15
-1.24268e-14
-3.12869e-15
1.3079e-13
1.03839e-12
1.42839e-11
4.23636e-13
4.29199e-13
3.97251e-12
2.1922e-12
2.69479e-08
4.11102e-10
1.42908e-11
1.42908e-11
6.56795e-11
0.000481246