/*--------------------------------*- C++ -*----------------------------------*\
| =========                 |                                                 |
| \\      /  F ield         | OpenFOAM: The Open Source CFD Toolbox           |
|  \\    /   O peration     | Version:  v1912                                 |
|   \\  /    A nd           | Website:  www.openfoam.com                      |
|    \\/     M anipulation  |                                                 |
\*---------------------------------------------------------------------------*/
FoamFile
{
    version     2.0;
    format      ascii;
    class       surfaceScalarField;
    location    "0.4";
    object      alphaPhi0.water;
}
// * * * * * * * * * * * * * * * * * * * * * * * * * * * * * * * * * * * * * //

dimensions      [0 3 -1 0 0 0 0];
oriented        oriented;


internalField   nonuniform List<scalar> 
17936
(
-1.08774e-06
2.25322e-06
-1.16548e-06
1.14359e-06
-8.13113e-08
-1.06228e-06
-1.63974e-06
3.63985e-06
-2.00011e-06
-5.58238e-06
7.273e-06
-1.69062e-06
-8.64335e-06
9.70685e-06
-1.06351e-06
-1.05205e-05
1.11567e-05
-6.36245e-07
-1.16851e-05
1.21617e-05
-4.76589e-07
-1.26255e-05
1.30986e-05
-4.73151e-07
-1.35896e-05
1.40968e-05
-5.07243e-07
-1.46124e-05
1.51248e-05
-5.12477e-07
-1.56216e-05
1.60897e-05
-4.68173e-07
-1.65175e-05
1.68937e-05
-3.7618e-07
-1.72079e-05
1.74499e-05
-2.41997e-07
-1.7608e-05
1.76594e-05
-5.14162e-08
-1.75609e-05
1.72562e-05
3.04657e-07
-1.66967e-05
1.58193e-05
8.77476e-07
-1.45213e-05
1.26455e-05
1.87582e-06
-1.00086e-05
6.53233e-06
3.4763e-06
-2.43246e-06
-1.56606e-06
4.0139e-06
3.83342e-06
-5.23746e-06
1.37412e-06
3.16702e-06
1.91326e-06
-5.66151e-06
8.26996e-07
-1.14597e-05
1.06401e-05
1.56062e-05
-8.97154e-06
-6.58089e-06
-3.3915e-06
4.50254e-06
-1.11103e-06
1.10492e-06
7.81937e-09
2.15665e-06
-3.26939e-06
-1.76917e-06
3.7749e-06
4.01705e-06
-6.02278e-06
-5.69935e-06
7.36428e-06
3.39405e-06
-5.05898e-06
-8.71488e-06
9.77415e-06
2.15178e-06
-3.21105e-06
-1.06028e-05
1.12713e-05
1.3096e-06
-1.97807e-06
-1.18436e-05
1.23698e-05
9.90873e-07
-1.51704e-06
-1.28838e-05
1.34048e-05
9.7772e-07
-1.49876e-06
-1.39399e-05
1.44875e-05
1.04121e-06
-1.58874e-06
-1.504e-05
1.5587e-05
1.05088e-06
-1.59789e-06
-1.61168e-05
1.66178e-05
9.64446e-07
-1.4654e-06
-1.7079e-05
1.74903e-05
7.84598e-07
-1.19584e-06
-1.78421e-05
1.81259e-05
5.22295e-07
-8.06087e-07
-1.83334e-05
1.8453e-05
1.80456e-07
-3.00042e-07
-1.8483e-05
1.84097e-05
-2.73808e-07
3.47114e-07
-1.82372e-05
1.79701e-05
-9.70902e-07
1.23804e-06
-1.76306e-05
1.72714e-05
-2.32546e-06
2.68468e-06
-1.69589e-05
1.66323e-05
-5.25903e-06
5.5856e-06
-1.58837e-05
1.38945e-05
-8.72904e-06
1.07182e-05
-1.01016e-05
5.11585e-06
-5.52329e-06
1.05091e-05
5.36783e-07
-6.19622e-06
5.29117e-06
3.68537e-07
1.07772e-05
-1.3254e-05
-1.76913e-05
1.96564e-05
1.37132e-05
-8.76828e-06
1.39884e-05
-1.93846e-05
-5.59079e-06
6.6538e-06
-1.06301e-06
1.024e-06
1.37421e-07
4.40238e-06
-5.5638e-06
-1.93189e-06
3.89463e-06
8.01218e-06
-9.97492e-06
-5.72066e-06
7.26617e-06
6.67087e-06
-8.21638e-06
-8.50777e-06
9.48937e-06
4.23395e-06
-5.21555e-06
-1.028e-05
1.0948e-05
2.64441e-06
-3.31245e-06
-1.15495e-05
1.21241e-05
2.06363e-06
-2.63823e-06
-1.26959e-05
1.32763e-05
2.04584e-06
-2.62616e-06
-1.38665e-05
1.44617e-05
2.15763e-06
-2.75287e-06
-1.50533e-05
1.56311e-05
2.15881e-06
-2.73655e-06
-1.61845e-05
1.67034e-05
1.97445e-06
-2.49336e-06
-1.71786e-05
1.76017e-05
1.61226e-06
-2.03528e-06
-1.79645e-05
1.82594e-05
1.09464e-06
-1.38962e-06
-1.84793e-05
1.86167e-05
4.28942e-07
-5.66356e-07
-1.86637e-05
1.86133e-05
-4.13381e-07
4.63769e-07
-1.8458e-05
1.81922e-05
-1.53576e-06
1.80149e-06
-1.78139e-05
1.73305e-05
-3.19169e-06
3.67513e-06
-1.67749e-05
1.62486e-05
-5.91538e-06
6.44164e-06
-1.59923e-05
1.62142e-05
-1.07665e-05
1.05446e-05
-1.64057e-05
1.50542e-05
-1.39426e-05
1.52941e-05
-1.03753e-05
3.23503e-06
-7.83106e-06
1.49713e-05
8.75654e-07
-8.59958e-07
-2.03518e-05
2.04412e-05
1.17886e-06
-2.17548e-06
2.01081e-05
-1.76458e-05
-7.68635e-06
8.68267e-06
-9.96321e-07
9.01763e-07
3.15905e-07
6.75465e-06
-7.97232e-06
-2.10556e-06
3.98057e-06
1.18994e-05
-1.37745e-05
-5.66093e-06
7.04795e-06
9.6856e-06
-1.10726e-05
-8.15776e-06
9.05702e-06
6.15474e-06
-7.05401e-06
-9.82025e-06
1.05091e-05
3.98765e-06
-4.6765e-06
-1.11665e-05
1.18175e-05
3.24801e-06
-3.89907e-06
-1.24734e-05
1.31354e-05
3.24541e-06
-3.90738e-06
-1.37985e-05
1.44549e-05
3.37787e-06
-4.03423e-06
-1.50953e-05
1.57107e-05
3.33284e-06
-3.94821e-06
-1.62927e-05
1.68339e-05
3.02315e-06
-3.56431e-06
-1.73274e-05
1.77667e-05
2.46603e-06
-2.90534e-06
-1.81455e-05
1.84576e-05
1.69253e-06
-2.0046e-06
-1.86967e-05
1.8857e-05
7.14374e-07
-8.74587e-07
-1.89323e-05
1.89177e-05
-4.9698e-07
5.11599e-07
-1.88092e-05
1.86062e-05
-2.03523e-06
2.23829e-06
-1.83125e-05
1.79396e-05
-4.0985e-06
4.47136e-06
-1.75086e-05
1.70462e-05
-6.96948e-06
7.43188e-06
-1.65764e-05
1.61727e-05
-1.07054e-05
1.1109e-05
-1.60383e-05
1.61215e-05
-1.542e-05
1.53369e-05
-1.56873e-05
1.35992e-05
-1.98661e-05
2.19543e-05
-1.18868e-05
9.89415e-06
-2.09057e-05
2.25559e-05
-7.35602e-06
3.82886e-06
1.51456e-05
-1.13628e-05
-9.63678e-06
1.05421e-05
-9.05329e-07
7.47508e-07
5.06174e-07
9.21161e-06
-1.04653e-05
-2.24883e-06
3.99607e-06
1.55898e-05
-1.73371e-05
-5.50496e-06
6.72579e-06
1.23756e-05
-1.35964e-05
-7.71297e-06
8.55103e-06
7.91884e-06
-8.75689e-06
-9.3137e-06
1.00504e-05
5.38595e-06
-6.12263e-06
-1.07872e-05
1.15327e-05
4.59599e-06
-5.34155e-06
-1.22847e-05
1.30351e-05
4.61375e-06
-5.36413e-06
-1.37738e-05
1.44912e-05
4.7219e-06
-5.43932e-06
-1.51791e-05
1.58307e-05
4.58228e-06
-5.23394e-06
-1.64409e-05
1.7005e-05
4.11695e-06
-4.68104e-06
-1.75188e-05
1.79777e-05
3.35401e-06
-3.8129e-06
-1.83768e-05
1.87108e-05
2.32705e-06
-2.6611e-06
-1.89745e-05
1.91628e-05
1.04825e-06
-1.23651e-06
-1.92709e-05
1.92953e-05
-5.06909e-07
4.82489e-07
-1.92343e-05
1.90889e-05
-2.41174e-06
2.55707e-06
-1.88648e-05
1.85729e-05
-4.80128e-06
5.09322e-06
-1.82308e-05
1.78619e-05
-7.84041e-06
8.20934e-06
-1.74904e-05
1.71154e-05
-1.15335e-05
1.19084e-05
-1.67145e-05
1.63528e-05
-1.5498e-05
1.58596e-05
-1.64464e-05
1.71205e-05
-2.20739e-05
2.13998e-05
-1.79732e-05
1.76138e-05
-2.43082e-05
2.46676e-05
-1.38102e-05
8.04106e-06
7.13041e-06
-1.04583e-06
-1.13907e-05
1.21728e-05
-7.82184e-07
5.65398e-07
6.99676e-07
1.17264e-05
-1.29914e-05
-2.36607e-06
3.95814e-06
1.90097e-05
-2.06017e-05
-5.28612e-06
6.35563e-06
1.47396e-05
-1.58091e-05
-7.25119e-06
8.06349e-06
9.57737e-06
-1.03897e-05
-8.85697e-06
9.66422e-06
6.89238e-06
-7.69963e-06
-1.04931e-05
1.13365e-05
6.13665e-06
-6.98007e-06
-1.21807e-05
1.3011e-05
6.15636e-06
-6.98659e-06
-1.38147e-05
1.4583e-05
6.18389e-06
-6.95216e-06
-1.53099e-05
1.59923e-05
5.90176e-06
-6.58414e-06
-1.66281e-05
1.72155e-05
5.25667e-06
-5.84408e-06
-1.77524e-05
1.82352e-05
4.28308e-06
-4.76593e-06
-1.86599e-05
1.90215e-05
3.00813e-06
-3.36975e-06
-1.9315e-05
1.95358e-05
1.44049e-06
-1.66129e-06
-1.96798e-05
1.97442e-05
-4.38102e-07
3.73685e-07
-1.97284e-05
1.96344e-05
-2.67589e-06
2.76987e-06
-1.94681e-05
1.92394e-05
-5.35156e-06
5.58025e-06
-1.89629e-05
1.86563e-05
-8.54504e-06
8.85165e-06
-1.83378e-05
1.80235e-05
-1.22449e-05
1.25592e-05
-1.77196e-05
1.73871e-05
-1.62496e-05
1.65821e-05
-1.70894e-05
1.72959e-05
-2.07916e-05
2.05851e-05
-1.82817e-05
1.85858e-05
-2.45083e-05
2.42042e-05
-1.60611e-05
9.49471e-06
-5.67718e-06
1.22436e-05
-1.28779e-05
1.34936e-05
-6.15713e-07
3.38408e-07
9.39804e-07
1.42627e-05
-1.55409e-05
-2.52671e-06
3.94832e-06
2.21084e-05
-2.35301e-05
-5.08825e-06
6.01967e-06
1.68073e-05
-1.77387e-05
-6.85236e-06
7.66987e-06
1.12019e-05
-1.20194e-05
-8.51676e-06
9.4044e-06
8.54701e-06
-9.43465e-06
-1.03227e-05
1.12517e-05
7.86866e-06
-8.79763e-06
-1.21701e-05
1.30604e-05
7.84969e-06
-8.73999e-06
-1.39107e-05
1.47147e-05
7.74019e-06
-8.54416e-06
-1.547e-05
1.61769e-05
7.27951e-06
-7.98639e-06
-1.68363e-05
1.74487e-05
6.44382e-06
-7.05617e-06
-1.80129e-05
1.8526e-05
5.26326e-06
-5.77633e-06
-1.89836e-05
1.93806e-05
3.74813e-06
-4.14514e-06
-1.97117e-05
1.99719e-05
1.90066e-06
-2.16087e-06
-2.01569e-05
2.02637e-05
-2.88867e-07
1.82082e-07
-2.02919e-05
2.02437e-05
-2.84058e-06
2.88873e-06
-2.0125e-05
1.9945e-05
-5.78298e-06
5.96294e-06
-1.97168e-05
1.94559e-05
-9.13335e-06
9.39426e-06
-1.91784e-05
1.88969e-05
-1.28566e-05
1.31381e-05
-1.8621e-05
1.83603e-05
-1.68629e-05
1.71235e-05
-1.80703e-05
1.77359e-05
-2.07345e-05
2.1069e-05
-1.75997e-05
1.72905e-05
-2.41051e-05
2.44143e-05
-1.52398e-05
9.67285e-06
-1.83643e-05
2.39313e-05
-1.40041e-05
1.43901e-05
-3.85985e-07
5.36528e-08
1.13383e-06
1.68056e-05
-1.7993e-05
-2.56872e-06
3.87536e-06
2.48795e-05
-2.61862e-05
-4.92512e-06
5.79158e-06
1.86198e-05
-1.94863e-05
-6.60356e-06
7.44784e-06
1.28463e-05
-1.36906e-05
-8.3551e-06
9.31822e-06
1.03606e-05
-1.13238e-05
-1.03122e-05
1.1308e-05
9.76186e-06
-1.07577e-05
-1.22808e-05
1.32135e-05
9.65274e-06
-1.05854e-05
-1.40966e-05
1.49272e-05
9.36149e-06
-1.01921e-05
-1.57061e-05
1.6436e-05
8.70395e-06
-9.43384e-06
-1.71198e-05
1.77585e-05
7.6809e-06
-8.31968e-06
-1.83511e-05
1.88933e-05
6.30432e-06
-6.84661e-06
-1.93803e-05
1.98069e-05
4.55933e-06
-4.98586e-06
-2.01682e-05
2.04608e-05
2.44131e-06
-2.7339e-06
-2.06819e-05
2.08292e-05
-5.19886e-08
-9.52924e-08
-2.09014e-05
2.08987e-05
-2.91351e-06
2.9162e-06
-2.08247e-05
2.06866e-05
-6.12187e-06
6.25995e-06
-2.04958e-05
2.02676e-05
-9.63794e-06
9.8662e-06
-2.00186e-05
1.97633e-05
-1.34054e-05
1.36607e-05
-1.9507e-05
1.92496e-05
-1.73821e-05
1.76395e-05
-1.89836e-05
1.86117e-05
-2.14547e-05
2.18265e-05
-1.80182e-05
1.70849e-05
-2.51234e-05
2.60567e-05
-1.51191e-05
1.08439e-05
-2.90095e-05
3.32848e-05
2.57507e-32
-6.61132e-32
1.69349e-32
-9.39389e-33
7.07865e-32
-2.10069e-31
-1.17816e-30
7.12666e-31
-2.04307e-31
-1.24667e-33
2.6446e-34
7.4831e-36
-2.00709e-37
1.7801e-38
1.55616e-38
-3.09995e-41
6.16183e-42
3.96478e-42
-5.87983e-46
1.12806e-46
1.70627e-46
4.59702e-51
-4.85616e-52
6.7093e-51
3.33976e-53
-1.22506e-54
6.2666e-54
4.4634e-56
-5.38272e-58
3.6552e-57
1.3084e-60
1.01521e-60
1.5567e-62
-1.79449e-59
2.95922e-58
-6.71595e-61
-4.64363e-57
7.03782e-56
-1.88161e-59
-9.81143e-55
1.24768e-53
2.41203e-54
-1.44562e-52
1.52398e-51
8.2687e-52
-1.45895e-50
1.26484e-49
1.43807e-49
-9.92332e-49
7.06867e-48
1.5681e-47
-4.66708e-47
2.9433e-46
1.2243e-45
-1.50521e-45
-9.93872e-61
9.36907e-44
1.78842e-28
-8.39204e-28
2.56841e-28
-2.33363e-28
1.80123e-27
2.54955e-29
-2.20647e-27
-1.09164e-25
8.57958e-26
1.73791e-26
-9.84059e-26
-3.65355e-28
5.13752e-29
-1.40693e-32
6.11171e-30
-3.73215e-32
8.13292e-33
-2.77154e-35
1.87185e-32
-4.23665e-36
2.21828e-37
-5.50254e-39
3.60904e-36
-1.09651e-40
1.27966e-43
-1.34206e-43
1.69267e-40
1.16494e-45
-1.6722e-46
-1.30424e-47
9.97368e-45
1.20542e-47
-5.84488e-49
-1.91323e-50
1.33699e-47
2.94721e-50
-1.28656e-51
-1.94574e-53
1.45406e-50
5.16954e-53
-1.57332e-54
-1.16846e-56
1.26285e-53
-4.37661e-56
1.22722e-54
9.18669e-59
-4.36914e-57
-2.12759e-53
3.49425e-52
7.30667e-58
-1.57979e-56
-5.12597e-51
6.75046e-50
-2.99764e-52
1.97828e-50
-8.00497e-49
8.56752e-48
-9.84083e-50
6.25993e-48
-8.27484e-47
7.20563e-46
-1.68145e-47
1.04337e-45
-5.65037e-45
4.00148e-44
-1.80747e-45
1.09904e-43
-2.61324e-43
1.63122e-42
-1.38512e-43
8.22365e-42
-8.20619e-42
-5.00788e-55
-1.03473e-41
5.89368e-40
5.90734e-24
-9.17194e-24
1.97408e-24
-1.635e-24
1.30141e-23
2.82131e-25
-3.02377e-23
-8.02638e-22
9.86716e-22
1.53843e-23
-1.79662e-21
-3.06412e-23
4.1029e-25
-1.53912e-27
2.15197e-25
-1.77269e-27
3.18729e-28
-6.62512e-30
1.14761e-27
-3.42152e-31
2.68525e-32
-1.49217e-33
2.91342e-31
-1.62332e-35
1.12767e-37
-8.93307e-38
1.57314e-35
8.51981e-42
-1.72617e-42
-1.26053e-42
1.76405e-40
1.31293e-43
-6.74501e-45
-1.71826e-45
2.46104e-43
3.35048e-46
-1.37733e-47
-2.04452e-48
2.69166e-46
6.14167e-49
-3.30709e-50
-1.71376e-51
2.45501e-49
2.28115e-51
1.90332e-51
-1.71598e-54
1.06656e-52
-3.28647e-50
5.31986e-49
3.37382e-55
9.67441e-53
-7.67553e-48
9.93821e-47
-8.61961e-49
2.7296e-47
-1.15945e-45
1.22035e-44
-2.66983e-46
8.3725e-45
-1.15967e-43
9.9452e-43
-4.36898e-44
1.35411e-42
-7.68193e-42
5.34867e-41
-4.52953e-42
1.3876e-40
-3.4145e-40
2.05592e-39
-3.32038e-40
9.99719e-39
-9.82113e-39
-1.14444e-49
-2.2769e-38
6.55798e-37
3.44397e-20
-6.606e-20
6.9026e-21
-5.23276e-21
2.08202e-20
2.15645e-21
-4.06043e-20
-1.71178e-18
3.17604e-18
1.23475e-19
-2.2346e-18
-2.6699e-19
1.06919e-21
-2.33824e-23
2.5333e-21
-1.5831e-23
9.91414e-25
-1.34569e-25
1.28504e-23
-4.51396e-27
3.28848e-28
-3.55051e-29
3.92308e-27
-1.98537e-31
2.66669e-33
-1.75801e-33
1.933e-31
4.25432e-38
-5.63848e-39
-1.1986e-38
6.91049e-37
3.66171e-40
-1.76684e-41
-1.63525e-41
8.58115e-40
8.99493e-43
-3.65619e-44
-1.55359e-44
9.41511e-43
1.54941e-45
-4.14268e-47
-2.16675e-47
8.01218e-46
1.95334e-48
8.612e-49
-1.54266e-50
2.40552e-49
-1.65811e-47
2.79512e-46
-2.01588e-50
7.41084e-49
-4.08284e-45
5.28691e-44
-6.62382e-46
1.26116e-44
-6.15364e-43
6.43596e-42
-2.03683e-43
3.96447e-42
-6.06497e-41
5.15574e-40
-3.27596e-41
6.39368e-40
-3.94484e-39
2.71365e-38
-3.32986e-39
6.47169e-38
-1.69914e-37
9.87393e-37
-2.36337e-37
4.53499e-36
-4.46446e-36
-2.47634e-45
-1.48291e-35
2.7217e-34
5.73337e-18
-2.04349e-17
4.80468e-18
-4.39269e-18
1.76988e-17
1.40868e-18
-1.77508e-16
-1.43308e-15
5.86072e-15
1.29436e-16
-5.31806e-15
-8.93103e-17
3.32091e-18
-2.00051e-19
1.27108e-17
-3.94761e-20
8.08529e-22
-8.98262e-22
3.57287e-20
-1.20479e-23
3.56809e-25
-2.9587e-25
1.11952e-23
-5.5276e-28
1.0022e-29
-1.38767e-29
5.51356e-28
3.08125e-35
-3.13693e-36
-2.22803e-35
3.92181e-34
3.20121e-37
-3.505e-38
-2.52456e-38
8.94533e-37
3.60469e-39
-2.60879e-40
-4.29329e-41
4.66159e-39
1.03187e-41
-4.84603e-46
-1.97428e-43
3.64098e-42
2.3703e-45
-3.14759e-45
-7.59502e-48
1.33484e-45
-1.8282e-45
5.05352e-44
-1.12733e-47
1.17814e-47
-8.94201e-43
1.22357e-41
-1.88177e-43
2.10868e-42
-1.47533e-40
1.56806e-39
-6.27754e-41
8.13086e-40
-1.4848e-38
1.26276e-37
-1.02796e-38
1.37929e-37
-9.63736e-37
6.58449e-36
-1.04132e-36
1.40787e-35
-4.05736e-35
2.27907e-34
-7.22348e-35
9.69698e-34
-9.74277e-34
-3.46512e-41
-4.14714e-33
5.32829e-32
3.23608e-16
-5.75819e-15
2.81662e-15
-5.57014e-15
3.79479e-14
4.90413e-16
-2.97415e-14
-2.29554e-12
6.39741e-12
2.00325e-13
-4.96842e-12
-9.96569e-14
1.29513e-14
-1.34247e-15
8.44299e-14
-1.84768e-16
1.2819e-18
-1.32204e-18
1.82599e-16
-1.66273e-20
1.44587e-22
-3.49375e-22
1.6239e-20
-6.55277e-25
1.63002e-27
-1.64069e-26
6.65523e-25
1.17561e-32
-4.42011e-33
-5.33832e-33
1.49926e-31
1.02186e-33
-1.52174e-34
-4.98467e-35
3.25502e-33
1.25181e-35
-3.22275e-37
-3.74115e-37
1.73919e-35
5.64461e-40
-1.1017e-40
-4.65386e-42
4.26688e-40
3.43878e-41
-9.15068e-41
-2.05621e-43
1.86744e-41
1.20987e-41
-6.89052e-42
2.03545e-43
-1.41502e-42
-5.80167e-41
1.17156e-39
-1.48919e-41
2.77419e-41
-1.66975e-38
1.91394e-37
-8.55312e-39
7.09549e-38
-1.87417e-36
1.62226e-35
-1.55576e-36
1.47751e-35
-1.24889e-34
8.54121e-34
-1.61556e-34
1.58255e-33
-5.20799e-33
2.83127e-32
-1.10893e-32
1.08667e-31
-1.1421e-31
-5.27475e-37
-5.82898e-31
5.44377e-30
2.33541e-13
-2.07389e-11
1.66745e-11
-4.04615e-12
2.67048e-11
8.50288e-13
-2.37075e-11
-2.3995e-09
2.82829e-09
7.27945e-10
-2.71792e-09
-3.27972e-10
5.37513e-12
-4.9943e-12
1.22604e-10
-1.68089e-13
2.83264e-15
-1.02237e-14
1.7053e-13
-3.21513e-17
2.45823e-19
-7.68532e-19
3.18161e-17
-8.58974e-22
-1.20173e-28
-2.63771e-23
8.85237e-22
2.54457e-28
-9.14335e-29
-1.58737e-29
2.78384e-27
2.41031e-29
-5.30295e-30
-3.18219e-31
8.17114e-29
9.59322e-31
-1.25682e-31
-3.88211e-33
1.51971e-30
1.537e-32
-4.15469e-34
-7.30649e-35
1.11304e-32
1.18006e-36
-4.8058e-36
-1.90839e-39
6.66347e-37
1.02116e-35
-1.40889e-36
9.39806e-39
-2.35375e-36
2.72423e-38
1.48604e-38
2.59233e-39
-3.12933e-39
-7.14679e-37
1.12425e-35
-4.21878e-37
1.18904e-36
-1.23417e-34
1.131e-33
-1.17525e-34
7.70149e-34
-8.95672e-33
6.18948e-32
-1.32612e-32
9.45741e-32
-3.73426e-31
1.94252e-30
-9.09487e-31
6.32389e-30
-7.2164e-30
-3.54991e-33
-4.22119e-29
2.40562e-28
-1.09128e-08
8.7478e-10
8.16976e-09
-5.86488e-10
8.58184e-10
2.17339e-10
-5.20775e-10
-4.99013e-09
5.09554e-09
2.42443e-09
-1.86416e-09
-4.09701e-09
7.58716e-11
-1.03536e-09
2.15237e-09
-2.00151e-12
3.58198e-14
-8.65646e-13
2.75948e-12
-4.14801e-16
1.7358e-18
-2.03744e-16
6.04456e-16
-3.16918e-21
-1.96046e-25
-3.59117e-21
6.79571e-21
1.62015e-25
-5.14911e-26
-1.13154e-25
1.18009e-24
1.31868e-26
-1.99549e-27
-3.69189e-27
2.924e-26
1.99873e-28
-1.20244e-29
-4.39909e-29
1.55716e-28
1.76063e-31
-4.33668e-33
-6.20382e-32
7.12265e-32
6.11038e-34
-1.88881e-33
-3.52895e-35
2.16676e-34
2.29095e-33
-6.22033e-34
2.32338e-35
-1.61614e-34
8.33071e-35
-4.29282e-35
3.86504e-36
-3.31109e-35
1.90367e-35
2.18064e-34
3.41482e-36
-2.40515e-34
-3.75018e-33
4.08318e-32
-3.9712e-33
1.37669e-32
-3.35007e-31
2.19631e-30
-5.49806e-31
2.06066e-30
-1.0092e-29
1.72666e-29
-2.72041e-29
-1.54565e-28
1.42265e-28
-1.35958e-29
9.22499e-28
-2.98105e-26
-1.46985e-05
1.38667e-05
8.31828e-07
-5.06681e-07
2.22277e-06
1.90519e-05
-2.0768e-05
-4.55267e-06
7.23428e-06
2.74792e-05
-3.01608e-05
-9.7027e-06
1.1788e-05
2.03836e-05
-2.24689e-05
-1.37171e-05
1.57081e-05
1.4566e-05
-1.6557e-05
-1.78316e-05
2.00555e-05
1.23239e-05
-1.45478e-05
-2.23117e-05
2.45352e-05
1.17808e-05
-1.40042e-05
-2.66803e-05
2.87228e-05
1.15351e-05
-1.35776e-05
-3.06549e-05
3.24796e-05
1.10366e-05
-1.28613e-05
-3.42046e-05
3.58408e-05
1.01799e-05
-1.18161e-05
-3.74004e-05
3.88898e-05
8.979e-06
-1.04684e-05
-4.03044e-05
4.16281e-05
7.41043e-06
-8.73421e-06
-4.28397e-05
4.39153e-05
5.428e-06
-6.50363e-06
-4.48315e-05
4.55678e-05
3.03173e-06
-3.76806e-06
-4.61094e-05
4.64535e-05
2.43541e-07
-5.87685e-07
-4.66158e-05
4.66152e-05
-2.90958e-06
2.91022e-06
-4.64713e-05
4.62e-05
-6.38317e-06
6.65453e-06
-4.582e-05
4.53644e-05
-1.00804e-05
1.0536e-05
-4.48751e-05
4.43856e-05
-1.39036e-05
1.43932e-05
-4.39084e-05
4.34336e-05
-1.78884e-05
1.83632e-05
-4.29442e-05
4.23937e-05
-2.21627e-05
2.27132e-05
-4.1643e-05
4.05219e-05
-2.70089e-05
2.813e-05
-3.92987e-05
3.95582e-05
-3.72824e-05
3.70229e-05
-1.12085e-05
6.13937e-06
5.06915e-06
-4.31057e-06
5.84456e-06
2.18506e-05
-2.33846e-05
-7.13131e-06
8.35507e-06
3.24957e-05
-3.37185e-05
-9.84831e-06
1.15772e-05
2.47035e-05
-2.64321e-05
-1.34482e-05
1.54678e-05
1.86659e-05
-2.06854e-05
-1.76102e-05
1.98075e-05
1.68211e-05
-1.90183e-05
-2.19921e-05
2.41168e-05
1.62125e-05
-1.83372e-05
-2.61601e-05
2.8114e-05
1.55912e-05
-1.7545e-05
-2.99821e-05
3.17663e-05
1.46785e-05
-1.64626e-05
-3.34754e-05
3.51334e-05
1.34776e-05
-1.51355e-05
-3.67553e-05
3.83228e-05
1.20506e-05
-1.36181e-05
-3.981e-05
4.1209e-05
1.02307e-05
-1.16297e-05
-4.25355e-05
4.38157e-05
7.83162e-06
-9.11186e-06
-4.50719e-05
4.63131e-05
4.81831e-06
-6.05951e-06
-4.75256e-05
4.86711e-05
1.21145e-06
-2.35703e-06
-4.97229e-05
5.04803e-05
-2.83167e-06
2.07421e-06
-5.08977e-05
5.09092e-05
-6.98648e-06
6.97504e-06
-5.05427e-05
4.99228e-05
-1.1078e-05
1.16979e-05
-4.9229e-05
4.8591e-05
-1.48952e-05
1.55332e-05
-4.80568e-05
4.76464e-05
-1.87507e-05
1.91611e-05
-4.73845e-05
4.73145e-05
-2.29653e-05
2.30352e-05
-4.7553e-05
4.82816e-05
-2.78057e-05
2.70771e-05
-4.9793e-05
5.23438e-05
-3.29731e-05
3.04224e-05
1.60658e-06
-1.22821e-05
1.06761e-05
-1.74315e-05
2.48535e-05
2.7541e-05
-3.4503e-05
-2.33364e-05
1.92878e-05
3.2474e-05
-1.71351e-05
-1.63439e-05
1.5426e-05
2.67691e-05
-1.98586e-05
-1.60858e-05
1.75661e-05
2.24739e-05
-1.74395e-05
-1.94369e-05
2.14855e-05
2.11808e-05
-1.6938e-05
-2.35786e-05
2.56886e-05
2.05193e-05
-1.62232e-05
-2.77853e-05
2.98905e-05
1.96356e-05
-1.53233e-05
-3.20093e-05
3.41472e-05
1.84526e-05
-1.43923e-05
-3.63398e-05
3.84711e-05
1.70297e-05
-1.35929e-05
-4.03735e-05
4.2069e-05
1.513e-05
-1.20222e-05
-4.36428e-05
4.51077e-05
1.25083e-05
-1.00752e-05
-4.6406e-05
4.74164e-05
9.62798e-06
-8.21872e-06
-4.80237e-05
4.81301e-05
6.57215e-06
-5.88189e-06
-4.76975e-05
4.71191e-05
3.16315e-06
-2.58467e-06
-4.66985e-05
4.65174e-05
-9.10584e-07
1.09176e-06
-4.68357e-05
4.75502e-05
-5.95519e-06
5.24072e-06
-4.82545e-05
4.88902e-05
-1.15525e-05
1.09168e-05
-4.9693e-05
5.05527e-05
-1.57784e-05
1.49187e-05
-5.12647e-05
5.17205e-05
-1.95536e-05
1.90977e-05
-5.18729e-05
5.17695e-05
-2.32472e-05
2.33506e-05
-5.15782e-05
5.1502e-05
-2.66782e-05
2.67544e-05
-5.17062e-05
5.20498e-05
-2.91735e-05
2.88299e-05
1.33548e-05
1.69982e-18
2.07478e-06
-5.99421e-06
3.58183e-07
5.65332e-06
-1.35439e-08
-9.77197e-09
1.59525e-10
9.61244e-09
1.9114e-21
-2.70077e-12
4.61547e-14
2.65462e-12
4.89859e-20
-7.48681e-16
1.13809e-17
7.36744e-16
5.56291e-19
-1.3259e-19
-1.84639e-19
-5.85615e-19
3.99782e-18
2.68287e-19
-2.51488e-19
-1.04201e-18
4.54742e-18
1.16804e-19
-2.20614e-20
-3.04039e-19
9.79108e-19
4.44316e-16
-8.79753e-14
9.78942e-14
-1.04357e-14
4.66457e-12
-1.04318e-10
1.27274e-10
-2.80839e-11
4.13538e-10
-3.31025e-10
7.10261e-09
-7.32915e-09
4.69684e-11
2.52505e-10
4.26075e-09
-5.50419e-09
-4.11847e-10
4.73717e-10
1.22512e-09
-1.82629e-09
-5.33765e-10
6.06993e-10
2.66319e-10
-8.14961e-10
-7.18155e-10
6.61342e-07
7.76625e-07
-4.73843e-09
-3.45085e-06
8.49658e-06
-1.6627e-06
-8.80952e-10
-1.60933e-05
2.76128e-05
-8.0572e-06
1.19207e-07
-4.25238e-05
5.63682e-05
-1.30566e-05
3.7109e-06
-6.01008e-05
5.77994e-05
-1.36107e-05
1.59121e-05
-5.41963e-05
5.19382e-05
-1.7081e-05
1.93391e-05
-5.10905e-05
5.13345e-05
-2.22324e-05
2.19884e-05
-5.21082e-05
5.28706e-05
-2.66556e-05
2.58931e-05
-5.33236e-05
5.32854e-05
-2.91583e-05
2.91965e-05
-2.48867e-18
2.09151e-18
1.4302e-19
-1.23435e-20
9.66735e-21
-4.29836e-20
5.855e-20
-7.33389e-21
-1.87036e-22
-2.53822e-20
6.67394e-20
5.36299e-21
-1.26009e-20
-3.23542e-19
5.96039e-19
3.96703e-20
-1.25769e-19
-2.11826e-18
3.31666e-18
3.02465e-19
-4.95358e-19
-7.28618e-18
9.52183e-18
5.24378e-19
-2.96635e-19
-6.57797e-18
5.99225e-18
3.47075e-20
-2.67116e-18
1.65787e-19
-1.76778e-18
8.49329e-17
-2.91258e-14
3.04849e-14
-1.01117e-16
1.64633e-12
-1.78191e-09
2.35532e-11
-6.21034e-11
6.98148e-10
1.7773e-09
2.08272e-08
-2.25329e-08
-3.51466e-09
3.87458e-09
1.36233e-08
-1.1544e-08
-4.377e-09
1.29384e-09
4.98204e-09
-1.45129e-08
-1.90096e-09
3.31908e-09
2.33547e-09
-1.11984e-08
-5.13168e-09
7.05696e-09
5.20116e-09
-9.0021e-09
-8.88151e-09
9.35742e-09
3.12717e-09
-2.19345e-09
-5.47983e-09
4.14003e-09
1.37112e-09
-3.02936e-11
-2.75346e-08
1.00785e-07
-7.46609e-08
1.74674e-09
-2.78985e-07
6.61628e-07
-4.12609e-07
3.73514e-08
-4.44926e-06
2.33154e-05
-1.66637e-05
3.61083e-07
-4.88215e-05
5.89195e-05
-2.52286e-05
1.60807e-05
-5.89526e-05
5.64652e-05
-2.66161e-05
2.91035e-05
-5.43492e-05
5.31803e-05
-2.88182e-05
2.99872e-05
-1.42288e-18
5.46348e-19
2.78983e-20
-8.2343e-21
6.90427e-21
-4.80634e-20
2.35564e-20
-1.48101e-20
3.0287e-20
-9.01322e-20
8.77914e-20
-5.15929e-20
5.89491e-20
-7.41623e-19
7.62646e-19
4.19231e-21
-1.29573e-19
-3.86187e-18
3.80615e-18
4.25826e-19
-8.6059e-19
-9.90171e-18
8.93101e-18
1.08316e-18
-4.21725e-19
-2.94075e-18
-1.72604e-18
-3.26695e-18
8.94478e-18
1.2672e-17
-7.60101e-17
-6.28826e-18
4.38368e-18
1.88381e-18
-1.40153e-17
-8.41776e-15
2.65871e-09
3.15301e-11
-9.2514e-11
-4.83751e-09
1.74148e-09
1.88253e-08
-8.6234e-12
-1.11011e-11
9.35671e-13
1.61925e-10
-1.4867e-10
-1.84383e-12
1.43906e-12
1.13714e-10
-1.13882e-10
-4.75213e-13
5.53496e-13
1.49278e-12
-1.91162e-12
-7.64946e-13
2.72387e-12
6.26119e-11
-1.79999e-11
-1.49e-12
1.27584e-12
5.58373e-12
-5.46628e-12
-1.33712e-12
1.62126e-12
4.58671e-13
-8.22192e-13
-1.9763e-10
7.6141e-09
8.23146e-11
-3.20876e-09
-1.12495e-08
1.46897e-08
-3.06697e-09
-8.25292e-10
-2.68976e-08
6.34668e-08
-5.20727e-08
1.61656e-08
-1.73467e-07
5.37304e-07
-4.27629e-07
5.98738e-08
-1.88335e-06
1.41634e-05
-1.32221e-05
3.90808e-07
-3.90012e-05
5.70773e-05
-3.16785e-05
1.2588e-05
-1.57601e-20
3.5687e-24
2.984e-22
-1.14129e-21
2.62016e-21
-8.01582e-21
2.8193e-21
-7.43549e-21
1.55783e-20
-7.28093e-20
5.45731e-20
-1.83604e-20
-8.94772e-21
-6.96293e-19
5.71947e-19
8.38229e-20
-2.92305e-19
-3.35829e-18
2.69565e-18
7.0763e-19
-1.19725e-18
-7.2194e-18
5.2868e-18
1.01986e-18
8.60511e-18
1.01961e-17
-2.42958e-17
-4.80871e-17
8.25749e-17
1.54278e-16
-1.90059e-16
-1.04791e-16
1.21837e-16
8.69783e-17
-1.94671e-16
-5.37885e-17
1.11603e-16
5.3425e-17
-1.21769e-15
-4.25953e-16
1.01578e-15
5.74901e-15
-7.40774e-15
-2.80409e-15
1.79292e-10
2.78854e-10
-4.12464e-10
-1.81273e-10
3.94165e-11
2.19292e-10
-3.51581e-10
-3.61026e-12
3.26552e-12
1.90927e-12
-1.99253e-12
-1.35885e-11
1.73568e-11
2.48474e-11
-2.63474e-11
-1.94706e-11
5.15157e-12
1.12501e-11
-2.1273e-11
-1.90675e-12
5.05847e-12
1.58647e-12
-4.87941e-12
-1.20965e-11
4.28777e-09
9.78446e-10
-1.23618e-11
-3.19369e-08
4.17493e-08
6.61187e-09
-1.49818e-08
-4.98285e-08
5.2028e-08
-6.22799e-09
4.40742e-09
-9.76989e-09
1.1024e-08
-1.12776e-08
2.67012e-09
-1.70726e-08
5.45839e-08
-4.1105e-08
3.21307e-09
-1.44385e-07
4.10519e-07
-2.97197e-07
3.12812e-08
4.41346e-24
-3.51205e-24
4.05464e-24
-1.14665e-22
5.50572e-22
-1.39145e-21
6.77318e-22
-1.68521e-21
1.98298e-21
-3.85159e-20
2.65434e-20
2.78974e-21
-2.30549e-20
-4.28984e-19
2.99422e-19
9.02077e-20
-2.492e-19
-1.99221e-18
1.36567e-18
5.25253e-19
-7.36421e-19
-3.53902e-18
2.18356e-18
2.40884e-19
1.47529e-17
2.55947e-17
-2.14856e-17
-6.55674e-17
9.23458e-17
2.03523e-16
-1.78447e-16
-9.15273e-17
1.20068e-16
1.93059e-16
-5.44532e-17
-4.60045e-15
9.51144e-14
2.95496e-15
-1.70681e-13
-2.36618e-13
1.80308e-13
3.18797e-14
-6.26319e-13
-3.75663e-13
3.46898e-12
7.0868e-11
-2.26343e-13
-3.13902e-11
6.39332e-13
8.32639e-11
-5.43332e-16
-4.45746e-13
1.56181e-12
2.05241e-12
-3.36929e-12
-8.48643e-13
3.92098e-12
2.30617e-11
-1.98455e-12
-4.80826e-13
2.48337e-11
6.32338e-12
-3.76217e-12
-5.29058e-11
6.2686e-11
7.00518e-11
-7.51547e-11
-1.04343e-11
7.19876e-12
7.10665e-12
-3.96607e-12
-3.40838e-11
3.06588e-08
1.75667e-08
-2.00773e-08
-3.50314e-08
3.82904e-08
6.11675e-10
-2.63445e-09
-8.49825e-09
1.76315e-10
-2.66265e-09
1.10269e-09
-3.3072e-10
5.56032e-10
-2.92373e-10
2.75754e-11
-1.26636e-09
3.54704e-09
-2.59852e-09
2.82984e-10
1.48458e-24
-8.25047e-25
-1.555e-25
-5.81655e-24
2.29444e-23
-3.45283e-22
2.05321e-22
3.13355e-23
-5.81117e-22
-1.7296e-20
1.06456e-20
4.00159e-21
-1.74205e-20
-1.957e-19
1.20107e-19
5.49465e-20
-1.33018e-19
-8.71313e-19
5.18036e-19
2.47859e-19
-2.85899e-19
-1.25234e-18
6.73835e-19
2.86798e-20
3.86806e-18
9.55143e-18
-3.18685e-18
-2.53919e-17
3.8344e-17
1.16099e-16
-6.08179e-17
-3.60745e-17
3.17514e-17
5.62247e-17
-6.79421e-17
-9.5598e-15
3.88373e-13
4.008e-13
-1.55197e-13
-4.11932e-13
3.78548e-13
6.23675e-13
-5.54878e-13
-1.31995e-13
3.48997e-15
6.31262e-14
-1.33206e-14
-1.14269e-15
1.10123e-15
1.86542e-16
-1.25414e-16
-1.82319e-12
2.15854e-12
3.83116e-12
-3.83139e-12
-2.30731e-12
1.42414e-13
1.7655e-12
-2.77536e-12
-8.54546e-14
7.77262e-14
1.29264e-14
-1.2516e-14
-3.09851e-11
3.15803e-11
7.64989e-11
-4.33465e-11
-8.40698e-13
7.23821e-13
1.2733e-12
-6.67682e-13
-1.1384e-12
1.3974e-08
2.78223e-08
-3.13971e-08
-1.71287e-08
1.10322e-09
4.03688e-09
-2.8127e-09
3.87177e-11
-1.78462e-12
-6.64216e-11
1.48233e-11
-4.66823e-12
7.10727e-12
-3.74637e-12
1.09499e-12
-1.24157e-11
3.1245e-11
-4.75738e-11
2.79201e-11
4.2258e-25
-9.53714e-26
-2.16553e-25
4.17335e-25
-4.50775e-24
-1.20073e-22
6.76037e-23
5.43315e-23
-4.25521e-22
-6.22758e-21
3.45165e-21
2.1734e-21
-7.98918e-21
-6.92596e-20
3.74808e-20
2.24267e-20
-4.88952e-20
-2.86994e-19
1.47981e-19
8.08268e-20
-8.07384e-20
-3.427e-19
1.65066e-19
2.67974e-20
3.54051e-19
9.25676e-19
-2.08738e-19
-2.40375e-18
8.86864e-18
2.37292e-17
-7.49545e-18
-2.08161e-17
1.89665e-16
3.02824e-16
-3.17153e-16
-2.36206e-16
1.40134e-17
2.45534e-16
-2.1416e-17
-7.94731e-18
8.14782e-18
1.83808e-17
-1.69623e-17
-8.49297e-18
6.32607e-17
2.29099e-16
-8.25996e-17
-7.96008e-17
6.83809e-17
1.28033e-16
-1.52726e-16
-4.59675e-17
1.40153e-17
3.4943e-17
-3.99204e-17
-5.51236e-13
7.06803e-14
2.01254e-12
-1.64594e-17
-1.95046e-15
6.29811e-16
2.42307e-15
-1.0897e-15
-3.00219e-16
2.69842e-16
7.10975e-16
-6.82723e-16
-1.23765e-15
6.74505e-14
3.54603e-13
-2.83611e-15
-6.77588e-14
8.52311e-10
8.96405e-09
-4.44169e-10
-3.10203e-09
1.10029e-09
2.22112e-09
-5.13611e-09
4.6132e-12
1.75442e-15
-9.94146e-12
5.76192e-12
-3.19644e-13
1.45917e-12
-1.20666e-12
3.45888e-13
-3.02653e-10
5.6627e-09
-2.58943e-11
1.9668e-08
-5.15005e-26
7.35178e-26
-8.81817e-26
2.23986e-25
-2.1738e-24
-3.62579e-23
1.83603e-23
2.37409e-23
-1.63381e-22
-1.80475e-21
8.85626e-22
7.47176e-22
-2.50719e-21
-1.8986e-20
8.97026e-21
6.455e-21
-1.2768e-20
-7.08697e-20
3.14361e-20
1.87997e-20
-1.7687e-20
-7.49151e-20
3.172e-20
8.26199e-21
1.74773e-20
3.42386e-20
-2.03202e-21
-1.29608e-19
7.57172e-19
2.06748e-18
-4.71292e-19
-2.88666e-18
5.9047e-18
2.47905e-17
-4.88824e-18
-6.14454e-18
7.09488e-18
1.68617e-17
-1.23808e-17
-7.08613e-18
8.15515e-18
1.56241e-17
-1.36505e-17
-1.78861e-17
4.7321e-17
7.75071e-17
-4.73148e-17
-7.17636e-17
7.335e-17
1.46087e-16
-1.20897e-16
-5.08006e-17
1.39431e-17
5.15121e-17
-5.17917e-17
-7.59214e-18
7.06179e-18
1.73107e-17
-1.79774e-17
-5.28976e-17
1.78835e-16
4.38523e-16
-2.65267e-16
-2.15933e-16
1.86147e-16
6.59875e-16
-5.61892e-16
-1.8903e-15
3.95297e-16
2.6668e-15
-2.50109e-15
9.01333e-15
-6.26837e-12
6.40454e-12
-1.21639e-13
2.64845e-09
-1.04712e-09
4.22518e-09
-4.99359e-10
-1.90062e-10
9.15541e-13
-5.08923e-11
8.3645e-11
-1.1292e-12
1.23332e-12
-2.25046e-13
1.5604e-13
-8.70194e-09
3.27765e-08
-3.74825e-08
7.74664e-09
-5.69746e-26
3.41095e-26
-2.06625e-26
5.72182e-26
-5.91733e-25
-8.69971e-24
3.82612e-24
6.347e-24
-4.12356e-23
-4.05563e-22
1.72293e-22
1.7668e-22
-5.53787e-22
-3.93606e-21
1.59628e-21
1.32008e-21
-2.3705e-21
-1.28726e-20
4.84787e-21
3.14164e-21
-2.89066e-21
-1.23988e-20
4.44561e-21
1.60724e-21
-1.89723e-22
-6.64701e-22
4.82946e-22
-5.38664e-21
2.82871e-20
8.70878e-20
-1.49772e-20
-1.13307e-19
3.74462e-19
1.08452e-18
-1.89675e-19
-9.35518e-19
1.18397e-18
4.23674e-18
-9.07422e-19
-1.29672e-18
1.5509e-18
5.02054e-18
-1.12707e-18
-2.80595e-18
7.77934e-18
1.79338e-17
-5.45849e-18
-1.47888e-17
1.57801e-17
5.08551e-17
-1.4857e-17
-1.40484e-17
8.00214e-18
3.3254e-17
-9.53504e-18
-5.1086e-18
5.5053e-18
1.55329e-17
-6.29292e-18
-1.18391e-17