/*--------------------------------*- C++ -*----------------------------------*\
| =========                 |                                                 |
| \\      /  F ield         | OpenFOAM: The Open Source CFD Toolbox           |
|  \\    /   O peration     | Version:  v1912                                 |
|   \\  /    A nd           | Website:  www.openfoam.com                      |
|    \\/     M anipulation  |                                                 |
\*---------------------------------------------------------------------------*/
FoamFile
{
    version     2.0;
    format      ascii;
    class       volScalarField;
    location    "0.4";
    object      p;
}
// * * * * * * * * * * * * * * * * * * * * * * * * * * * * * * * * * * * * * //

dimensions      [1 -1 -2 0 0 0 0];


internalField   nonuniform List<scalar> 
9072
(
839.22
872.149
877.722
875.126
868.039
862.422
859.592
859.155
860.744
864.287
869.98
878.235
889.593
904.704
924.27
948.808
979.096
1013.08
1036.91
1035.46
1042.54
1017.49
1044.4
778.223
811.844
817.602
814.909
808.076
802.78
800.157
799.793
801.372
804.874
810.523
818.735
830.041
844.994
864.133
887.888
916.175
947.087
972.86
976.523
995.863
922.472
926.524
715.605
750.117
755.743
752.979
746.753
742.163
739.968
739.744
741.294
744.706
750.26
758.385
769.592
784.396
803.221
826.226
852.824
880.413
903.168
917.609
942.543
842.899
816.971
651.495
686.909
692.263
689.599
684.317
680.697
679.048
678.982
680.474
683.752
689.169
697.165
708.235
722.844
741.31
763.588
788.82
814.566
836.531
852.244
866.248
805.273
790.318
586.067
622.266
627.422
625.136
621.061
618.511
617.405
617.462
618.857
621.967
627.216
635.051
645.948
660.332
678.433
700.06
724.239
748.761
770.327
786.402
795.544
773.334
792.648
519.578
556.366
561.512
559.95
557.214
555.666
555.007
555.12
556.382
559.304
564.363
572.007
582.701
596.843
614.599
635.691
659.123
682.916
704.364
721.179
731.716
734.632
782.71
452.42
489.5
494.846
494.327
492.897
492.157
491.793
491.887
492.99
495.716
500.574
507.996
518.451
532.338
549.784
570.47
593.433
616.902
638.56
656.311
669.235
682.032
731.778
385.167
421.988
427.63
428.393
428.106
427.909
427.68
427.692
428.621
431.152
435.799
442.96
453.134
466.759
483.936
504.34
527.088
550.588
572.787
591.636
606.158
619.451
648.065
317.974
318.009
318.008
317.997
317.972
317.937
317.895
317.852
317.811
317.777
317.751
317.736
317.731
317.736
317.75
317.769
317.791
317.81
317.822
317.912
317.95
317.951
317.94
317.915
317.879
317.836
317.792
317.751
317.717
317.691
317.676
317.671
317.676
317.69
317.71
317.732
317.752
317.764
317.846
317.89
317.894
317.885
317.859
317.821
317.777
317.731
317.69
317.655
317.629
317.614
317.609
317.615
317.629
317.65
317.673
317.694
317.708
317.774
317.832
317.84
317.833
317.804
317.763
317.717
317.67
317.626
317.591
317.565
317.55
317.545
317.551
317.567
317.589
317.615
317.638
317.653
317.693
317.774
317.785
317.784
317.751
317.706
317.656
317.606
317.562
317.525
317.499
317.484
317.479
317.486
317.503
317.528
317.557
317.583
317.6
317.593
317.721
317.73
317.737
317.697
317.647
317.594
317.542
317.495
317.458
317.431
317.416
317.412
317.42
317.438
317.466
317.499
317.529
317.55
317.477
317.67
317.661
317.686
317.642
317.588
317.531
317.475
317.426
317.388
317.361
317.345
317.342
317.351
317.372
317.403
317.441
317.477
317.502
317.268
317.584
317.525
317.608
317.582
317.527
317.465
317.406
317.355
317.316
317.288
317.273
317.27
317.279
317.303
317.339
317.383
317.427
317.457
263.907
333.876
341.081
343.853
344.396
344.487
344.226
344.057
344.748
347.039
351.427
358.168
367.879
381.123
398.007
418.225
441.01
464.961
488.335
508.806
524.235
531.832
510.961
144.098
184.766
197.907
204.066
203.184
202.629
202.002
201.524
201.894
203.864
207.514
212.832
221.131
233.284
249.713
270.184
293.904
320.066
347.437
372.235
390.544
396.046
378.765
61.8687
62.5382
55.0975
59.7493
56.3785
55.8686
54.9191
53.8618
52.8057
53.5474
58.4489
62.1923
69.6787
83.693
103.4
122.014
143.216
170.048
205.194
238.373
265.664
283.578
292.059
5.65074
1.3706
1.01625
1.03852
1.04499
1.05487
1.0673
1.08504
1.11508
1.13048
1.26446
1.37866
1.40604
1.45251
1.57092
3.74636
9.2856
27.1185
70.2734
112.704
146.848
176.96
204.541
0.776894
0.870629
0.882025
0.889065
0.898861
0.910452
0.924139
0.940311
0.955433
0.9191
1.01675
1.11586
1.17604
1.23095
1.25671
1.28964
1.35306
1.39635
1.55139
5.06012
34.5284
75.7537
113.488
0.637391
0.71699
0.728962
0.738172
0.749037
0.761794
0.77701
0.794242
0.808004
0.761172
0.813763
0.901194
0.95946
1.00414
1.03934
1.08185
1.14071
1.20723
1.20382
1.03434
0.655326
2.19149
23.4458
0.477845
0.564682
0.574814
0.584874
0.596291
0.609644
0.625095
0.642129
0.658395
0.660525
0.679072
0.729382
0.772612
0.807438
0.83577
0.862959
0.885488
0.865202
0.744762
0.452151
0.294979
0.373578
0.42926
0.314437
0.406043
0.41814
0.428928
0.440731
0.454053
0.469028
0.485353
0.502079
0.516992
0.533433
0.561054
0.589027
0.612849
0.629193
0.635381
0.619676
0.541663
0.292485
-0.0937603
-0.0907243
0.16975
0.401008
0.159808
0.247728
0.260158
0.270979
0.282606
0.295419
0.309527
0.324716
0.340475
0.356226
0.372655
0.391874
0.410465
0.425026
0.431556
0.423812
0.387428
0.286733
0.0183332
-0.281211
-0.2016
0.0614008
0.335003
0.00830246
0.0914288
0.101712
0.111544
0.122372
0.134327
0.1474
0.161406
0.176
0.190849
0.205944
0.221285
0.235172
0.24501
0.247288
0.236331
0.201338
0.119702
-0.0698964
-0.248754
-0.156436
0.0297252
0.240906
-0.146301
-0.0649796
-0.0576301
-0.0493773
-0.0396663
-0.0287049
-0.0166437
-0.00368546
0.00989652
0.0238124
0.037799
0.0513903
0.0634554
0.0722525
0.0754043
0.0694209
0.0488992
0.00571826
-0.082168
-0.168473
-0.100739
0.0220303
0.108997
-0.30514
-0.223524
-0.218672
-0.211888
-0.203314
-0.19331
-0.182126
-0.169985
-0.157112
-0.143781
-0.130333
-0.117204
-0.105062
-0.0948386
-0.0877227
-0.0851196
-0.088369
-0.0978406
-0.112319
-0.116993
-0.0751555
0.0151528
0.0777212
-0.467999
-0.385268
-0.381834
-0.376162
-0.368561
-0.35937
-0.348862
-0.337275
-0.324828
-0.311762
-0.298343
-0.284821
-0.271444
-0.258515
-0.24634
-0.234998
-0.22387
-0.210912
-0.191628
-0.15819
-0.106035
-0.0475296
0.0027159
-0.634369
-0.550194
-0.547415
-0.542438
-0.535538
-0.526973
-0.51698
-0.505781
-0.493575
-0.480529
-0.466754
-0.452281
-0.437082
-0.42108
-0.404063
-0.385471
-0.3641
-0.337899
-0.304038
-0.26025
-0.20826
-0.154772
-0.105005
-0.803637
-0.718084
-0.715516
-0.710919
-0.704493
-0.696413
-0.686847
-0.675956
-0.663866
-0.650632
-0.63622
-0.62052
-0.603365
-0.584496
-0.563461
-0.539504
-0.511479
-0.477981
-0.437798
-0.390869
-0.339357
-0.286958
-0.235595
-0.975212
-0.888412
-0.885879
-0.881494
-0.875393
-0.867684
-0.858461
-0.847795
-0.835706
-0.82215
-0.807013
-0.790124
-0.771257
-0.750073
-0.726054
-0.698471
-0.666435
-0.629118
-0.586179
-0.538227
-0.486966
-0.434486
-0.381741
-1.14895
-1.06077
-1.05818
-1.0539
-1.04801
-1.04055
-1.03154
-1.02099
-1.00882
-0.994943
-0.979219
-0.96145
-0.94137
-0.918609
-0.892667
-0.862934
-0.828775
-0.78973
-0.745818
-0.697762
-0.646855
-0.594414
-0.540999
-1.32525
-1.23542
-1.23274
-1.22849
-1.2227
-1.21536
-1.20645
-1.19591
-1.18366
-1.16959
-1.15353
-1.13528
-1.11453
-1.09092
-1.06401
-1.03331
-0.998384
-0.958976
-0.915214
-0.867739
-0.81755
-0.765603
-0.712324
-1.50449
-1.413
-1.41022
-1.40597
-1.40023
-1.39295
-1.3841
-1.37359
-1.36136
-1.34726
-1.33112
-1.31272
-1.29177
-1.26792
-1.24079
-1.21001
-1.17528
-1.13646
-1.0937
-1.04751
-0.99863
-0.947833
-0.89554
-1.68656
-1.59366
-1.59084
-1.58661
-1.58094
-1.57378
-1.56505
-1.5547
-1.54262
-1.52868
-1.5127
-1.49447
-1.47371
-1.45013
-1.42339
-1.39321
-1.3594
-1.32191
-1.28088
-1.23672
-1.18998
-1.14129
-1.09109
-1.87105
-1.77703
-1.77424
-1.77012
-1.76461
-1.75766
-1.74919
-1.73913
-1.72739
-1.71382
-1.69826
-1.68052
-1.66036
-1.63752
-1.61172
-1.58277
-1.55056
-1.51508
-1.47651
-1.43518
-1.39156
-1.3462
-1.29958
-2.05764
-1.96266
-1.96
-1.95608
-1.95083
-1.94419
-1.93611
-1.9265
-1.91528
-1.90232
-1.88748
-1.87058
-1.85142
-1.8298
-1.8055
-1.77841
-1.74847
-1.71576
-1.68044
-1.64284
-1.60345
-1.56285
-1.52164
-2.24618
-2.15034
-2.1479
-2.14425
-2.13934
-2.13312
-2.12554
-2.11654
-2.10604
-2.09393
-2.08008
-2.06437
-2.04663
-2.02671
-2.00447
-1.97987
-1.95294
-1.92377
-1.89258
-1.85977
-1.82592
-1.79177
-1.75811
-2.4366
-2.33998
-2.3378
-2.33448
-2.32998
-2.32427
-2.31732
-2.30907
-2.29946
-2.28842
-2.27586
-2.26166
-2.24573
-2.22797
-2.20833
-2.18685
-2.16363
-2.13883
-2.11275
-2.08593
-2.05918
-2.03349
-2.01003
-2.62886
-2.53151
-2.52963
-2.52667
-2.52263
-2.51752
-2.51129
-2.50393
-2.49539
-2.48563
-2.47458
-2.4622
-2.44843
-2.43324
-2.4167
-2.39892
-2.3801
-2.36048
-2.34056
-2.32109
-2.30318
-2.2883
-2.27838
-2.82289
-2.72487
-2.72326
-2.72067
-2.71715
-2.71269
-2.70729
-2.70094
-2.69361
-2.6853
-2.67599
-2.66567
-2.65436
-2.64212
-2.6291
-2.61554
-2.60173
-2.58809
-2.57534
-2.56455
-2.55731
-2.55587
-2.56345
-3.01851
-2.9199
-2.91853
-2.91633
-2.91336
-2.90962
-2.90512
-2.89988
-2.89389
-2.88717
-2.87976
-2.87171
-2.86309
-2.85408
-2.84494
-2.83601
-2.82772
-2.82071
-2.81598
-2.81503
-2.82013
-2.83471
-2.86416
-3.21553
-3.11641
-3.11525
-3.11346
-3.11107
-3.1081
-3.10456
-3.10049
-3.09593
-3.09091
-3.08552
-3.07987
-3.07412
-3.06854
-3.06349
-3.05946
-3.05703
-3.05707
-3.06091
-3.07057
-3.08919
-3.12179
-3.17708
-3.41373
-3.31418
-3.31323
-3.31185
-3.31007
-3.3079
-3.30536
-3.30252
-3.29942
-3.29617
-3.29287
-3.2897
-3.28689
-3.28481
-3.28395
-3.28492
-3.28845
-3.29564
-3.30817
-3.32863
-3.36101
-3.41214
-3.49479
-3.61285
-3.51295
-3.51222
-3.51128
-3.51013
-3.50877
-3.50726
-3.50566
-3.50406
-3.50257
-3.50138
-3.50068
-3.50081
-3.50221
-3.50547
-3.51132
-3.52064
-3.53474
-3.55562
-3.58631
-3.63144
-3.69916
-3.80502
-3.81255
-3.71245
-3.71197
-3.7115
-3.71099
-3.71046
-3.70997
-3.7096
-3.70947
-3.70973
-3.71058
-3.71229
-3.71525
-3.71997
-3.72714
-3.73756
-3.75225
-3.77268
-3.80112
-3.84078
-3.89654
-3.97653
-4.09507
-4.01247
-3.9124
-3.91222
-3.91225
-3.91239
-3.91268
-3.91319
-3.91402
-3.91531
-3.91724
-3.92004
-3.92402
-3.92961
-3.93738
-3.94809
-3.96259
-3.982
-4.00792
-4.04275
-4.08977
-4.15373
-4.24155
-4.36123
-4.2124
-4.11256
-4.11276
-4.11331
-4.11411
-4.11519
-4.11666
-4.11864
-4.12127
-4.12476
-4.12936
-4.1354
-4.14335
-4.15381
-4.16756
-4.1855
-4.2088
-4.23914
-4.27896
-4.33156
-4.40162
-4.49489
-4.61527
-4.41218
-4.31277
-4.3134
-4.31449
-4.31592
-4.31777
-4.32015
-4.3232
-4.32706
-4.33197
-4.33818
-4.34604
-4.35602
-4.36873
-4.38493
-4.40556
-4.43179
-4.46529
-4.50846
-4.56466
-4.63856
-4.73582
-4.86049
-4.61179
-4.51287
-4.51396
-4.51556
-4.51761
-4.52018
-4.52342
-4.52744
-4.53242
-4.53857
-4.54618
-4.55558
-4.56722
-4.58168
-4.59971
-4.6222
-4.65029
-4.68555
-4.73026
-4.78771
-4.86251
-4.96047
-5.08793
-4.81122
-4.71276
-4.71428
-4.71638
-4.71898
-4.72222
-4.72622
-4.73112
-4.73708
-4.74432
-4.75309
-4.76374
-4.77666
-4.79239
-4.8116
-4.83512
-4.864
-4.89959
-4.94391
-5
-5.07201
-5.16543
-5.2878
-5.01047
-4.91242
-4.91432
-4.91685
-4.91996
-4.92379
-4.92849
-4.93416
-4.94096
-4.94911
-4.95883
-4.97043
-4.98428
-5.00083
-5.02063
-5.04441
-5.07306
-5.10766
-5.14977
-5.20186
-5.26731
-5.3504
-5.45753
-5.20935
-5.1117
-5.11392
-5.11681
-5.12037
-5.12474
-5.13004
-5.13638
-5.14391
-5.15281
-5.16328
-5.17559
-5.19004
-5.20701
-5.22692
-5.25032
-5.27789
-5.31037
-5.3488
-5.39482
-5.45069
-5.51902
-5.60333
-5.40758
-5.31038
-5.31287
-5.31608
-5.32004
-5.32488
-5.33071
-5.33763
-5.34576
-5.35527
-5.36633
-5.37914
-5.39396
-5.41104
-5.43069
-5.45326
-5.47914
-5.50874
-5.54252
-5.58125
-5.62593
-5.67745
-5.73674
-5.60521
-5.50848
-5.51128
-5.51478
-5.5191
-5.52436
-5.53066
-5.53808
-5.54674
-5.55676
-5.56829
-5.58147
-5.59649
-5.61351
-5.6327
-5.6542
-5.67813
-5.70452
-5.73332
-5.76446
-5.79766
-5.83226
-5.86743
-5.79948
-5.70577
-5.70892
-5.71269
-5.71736
-5.72301
-5.72973
-5.73761
-5.74673
-5.7572
-5.76913
-5.78261
-5.79776
-5.81464
-5.83331
-5.85371
-5.87572
-5.89903
-5.92312
-5.94716
-5.9698
-5.98885
-6.00147
-5.99619
-5.89966
-5.9032
-5.90726
-5.91222
-5.91818
-5.92524
-5.93348
-5.94297
-5.9538
-5.96604
-5.97975
-5.99496
-6.01168
-6.02984
-6.04927
-6.06964
-6.0904
-6.11066
-6.12903
-6.14336
-6.15047
-6.14561
233.654
274.5
297.129
317.347
336.852
300.478
297.753
303.59
295.238
302.446
320.005
343.64
231.817
251.644
277.102
312.165
148.627
169.836
192.878
215.907
57.026
78.4029
98.2759
117.897
1.15505
5.20403
15.2874
27.3009
0.532339
0.59028
0.623383
0.639484
0.495434
0.540884
0.564084
0.566748
0.396831
0.433484
0.443208
0.460405
0.225606
0.271447
0.303461
0.336555
0.128389
0.165152
0.200354
0.234331
0.0460153
0.0737982
0.103016
0.133701
-0.0611923
-0.0352639
-0.00816846
0.0203268
-0.190165
-0.164111
-0.137211
-0.109204
-0.334849
-0.308302
-0.281093
-0.252973
-0.493313
-0.466413
-0.438885
-0.410578
-0.664659
-0.637827
-0.610347
-0.58214
-0.848764
-0.822538
-0.795734
-0.76819
-1.04629
-1.02129
-0.99582
-0.969647
-1.25826
-1.23529
-1.21192
-1.188
-1.48569
-1.4659
-1.44585
-1.42557
-1.72992
-1.7149
-1.70001
-1.68545
-1.9927
-1.98455
-1.97726
-1.97138
-2.27603
-2.27762
-2.28137
-2.28856
-2.58152
-2.59706
-2.61718
-2.64435
-2.90951
-2.9449
-2.98942
-3.04723
-3.25708
-3.31952
-3.39944
-3.50359
-3.61411
-3.70993
-3.83794
-4.01257
-3.95628
-4.07999
-4.25288
-4.50476
-4.25405
-4.37988
-4.55519
-4.81169
-4.49924
-4.58951
-4.69625
-4.83402
-4.738
-4.80481
-4.86174
-4.89906
-4.99027
-5.06531
-5.13854
-5.20957
-5.2286
-5.31834
-5.41744
-5.53098
-5.42795
-5.52218
-5.63301
-5.77068
-5.57974
-5.66225
-5.76117
-5.89209
-5.69459
-5.75293
-5.81974
-5.9037
-5.7958
-5.83059
-5.8674
-5.90603
-5.89833
-5.91565
-5.93436
-5.95513
-6.00443
-6.00242
-5.99841
-5.99456
-6.12598
-6.10756
-6.08225
-6.04918
317.108
317.259
317.265
317.475
317.496
317.445
317.379
317.314
317.26
317.22
317.192
317.177
317.173
317.184
317.211
317.254
317.309
317.365
317.404
317.856
317.447
316.759
317.3
317.357
317.31
317.228
317.146
317.086
317.047
317.022
317.007
317.003
317.014
317.046
317.103
317.182
317.271
317.338
339.058
318.747
317.612
317.284
317.245
317.193
317.068
316.95
316.888
316.857
316.841
316.828
316.821
316.826
316.86
316.931
317.045
317.19
317.31
365.834
317.577
317.684
317.3
317.025
317.143
316.906
316.697
316.642
316.63
316.653
316.649
316.627
316.614
316.641
316.72
316.876
317.118
317.352
240.655
229.521
248.693
290.348
316.511
317.09
316.745
316.312
316.336
316.244
316.326
316.519
316.42
316.368
316.376
316.446
316.628
317.019
317.522
142.984
169.679
189.912
230.532
274.14
290.614
308.04
239.553
290.786
315.193
314.016
316.335
316.191
316.028
316.069
316.083
316.195
316.712
317.911
47.4621
78.0883
104.312
135.03
168.997
200.203
202.647
168.052
201.926
252.586
243.683
316.012
316.008
315.398
315.636
315.649
315.42
315.36
317.458
0.820939
8.83877
22.5887
39.1439
62.2069
86.0161
99.3066
97.4212
108.338
132.859
167.635
210.846
237.817
254.584
312.566
315.184
314.26
311.52
303.072
0.59212
0.659518
0.735452
0.911814
1.33494
4.71738
9.60995
13.8177
20.1786
31.4101
53.9806
91.741
133.711
195.472
287.453
311.327
313.122
310.876
306.295
0.495516
0.561698
0.677568
0.790313
0.909122
1.0462
1.16663
1.26231
1.43014
1.58325
1.73771
6.25474
27.9645
77.3483
167.711
262.883
307.606
312.41
312.895
0.375574
0.463173
0.581132
0.69235
0.806971
0.930786
1.05899
1.18638
1.32206
1.45072
1.56904
1.71087
1.83611
3.3797
36.3968
131.355
235.526
306.973
319.802
0.27996
0.370414
0.472301
0.57922
0.69374
0.816971
0.947033
1.08154
1.21765
1.34515
1.47332
1.6311
1.80139
1.95274
2.09475
13.7238
116.97
317.765
628.662
0.176437
0.260288
0.355873
0.460092
0.57384
0.697409
0.829619
0.968717
1.11191
1.25206
1.38751
1.54471
1.7259
1.89222
2.02104
2.13586
10.3935
320.261
880.566
0.0606355
0.140174
0.23142
0.333413
0.446562
0.570902
0.705709
0.8498
1.00129
1.15662
1.31103
1.46997
1.64608
1.82385
1.96422
2.03207
2.25116
89.4699
579.302
-0.0697006
0.00769026
0.0965609
0.197187
0.310143
0.435515
0.573128
0.722479
0.882316
1.05037
1.22319
1.39744
1.57414
1.7523
1.91058
1.9799
2.04532
25.7793
297.757
-0.213637
-0.137315
-0.0498007
0.0499581
0.162828
0.289159
0.429491
0.584101
0.752176
0.931709
1.11993
1.31329
1.50567
1.69014
1.85862
1.96142
1.99587
33.6623
158.275
-0.371254
-0.295676
-0.209249
-0.110339
0.0021493
0.129036
0.27166
0.43096
0.606432
0.796872
1.00078
1.2151
1.43195
1.63805
1.82083
1.95932
2.08574
36.3817
71.036
-0.543115
-0.468676
-0.383749
-0.286294
-0.174939
-0.0484268
0.0953603
0.257834
0.438806
0.63897
0.860656
1.10216
1.35186
1.59305
1.8078
1.97279
2.01007
4.95824
3.48877
-0.730052
-0.657811
-0.575554
-0.480914
-0.372165
-0.247747
-0.104995
0.0578755
0.241104
0.448774
0.691786
0.971856
1.26731
1.55717
1.82477
2.05109
2.31174
31.4834
20.0531
-0.933368
-0.865215
-0.787675
-0.698091
-0.594383
-0.474907
-0.336618
-0.177193
0.00352024
0.212748
0.481687
0.8224
1.17863
1.52896
1.86656
2.15181
2.45789
6.23261
-16.3901
-1.1551
-1.09391
-1.02417
-0.942962
-0.848
-0.737667
-0.60828
-0.456863
-0.287105
-0.0985756
0.191766
0.657306
1.086
1.49793
1.9279
2.31699
2.66571
2.01982
43.4523
-1.39814
-1.34801
-1.29057
-1.22251
-1.14123
-1.0449
-0.929558
-0.793264
-0.652804
-0.537525
-0.234279
0.489867
0.976974
1.4317
2.00406
2.5333
2.84504
11.2267
78.6282
-1.66652
-1.63343
-1.59506
-1.54675
-1.48443
-1.40564
-1.30797
-1.19327
-1.08524
-0.994386
-0.78669
-0.397934
0.487284
1.20659
2.11101
2.78853
2.79408
2.04614
-1.53193
-1.96564
-1.95904
-1.95007
-1.92981
-1.89007
-1.82765
-1.7443
-1.64634
-1.54192
-1.39978
-1.25434
-1.31245
-0.798786
0.227741
2.35674
3.31503
3.6484
4.00463
3.8734
-2.30333
-2.33826
-2.37483
-2.39289
-2.3752
-2.31924
-2.2378
-2.14462
-2.03359
-1.86299
-1.60531
-1.69365
-2.7247
-1.29629
2.26354
3.9868
4.36686
4.54093
11.7708
-2.69086
-2.79247
-2.90297
-2.97501
-2.97061
-2.89505
-2.79172
-2.69021
-2.58188
-2.4226
-2.14959
-2.08269
-2.55327
-1.9705
0.996886
3.67305
4.37901
4.21076
0.846806
-3.14346
-3.35814
-3.6003
-3.75942
-3.73937
-3.57978
-3.41021
-3.28106
-3.18252
-3.09424
-2.72629
-2.63239
-3.89545
-3.47526
-1.38841
1.9571
3.6343
5.23792
27.1222
-3.67921
-4.11229
-4.66151
-4.98809
-4.83626
-4.41159
-4.08855
-3.8944
-3.84091
-4.11881
-4.62675
-5.17439
-5.57034
-5.27918
-3.96541
-0.795335
1.65548
0.265975
11.1736
-4.33013
-5.37634
-6.62348
-7.27318
-6.63292
-5.45598
-4.80316
-4.44554
-4.35758
-4.80185
-5.64136
-6.0709
-6.57263
-6.65698
-6.0024
-2.6352
0.274501
0.445768
-4.07465
-5.03632
-6.46547
-8.27366
-9.32037
-8.17671
-6.13648
-5.40259
-4.79424
-4.47584
-4.59174
-5.84029
-6.62369
-7.4902
-7.77341
-7.39553
-2.54489
1.02594
3.31564
4.05572
-5.41457
-7.2453
-7.83293
-8.53673
-8.04034
-5.62825
-5.64838
-5.05388
-4.6162
-5.47413
-6.09731
-6.57407
-7.51217
-7.61202
-5.99218
-2.0166
1.14455
4.20088
7.45854
-5.17603
-7.01338
-7.96222
-8.61655
-6.76836
-5.68405
-5.66752
-5.55979
-5.75111
-6.20665
-6.15939
-6.4234
-6.96718
-6.70172
-4.65938
-1.57411
-0.0473382
13.6305
150.989
-4.84774
-5.13985
-5.90547
-6.30112
-6.93685
-6.97531
-6.75864
-6.60821
-6.62416
-6.46002
-6.37169
-6.77481
-7.33255
-7.02244
-4.41588
-1.50196
6.45474
27.1483
111.805
-5.3082
-5.76727
-6.55815
-6.82891
-7.586
-7.64996
-7.39416
-7.25615
-7.31711
-6.93779
-7.12918
-8.07227
-8.8121
-9.61701
3.49845
4.4763
1.34139
1.36992
9.54099
-5.72998
-6.06441
-6.51051
-6.92427
-8.06222
-7.99236
-7.69338
-8.11216
-8.26818
-7.63103
-8.09367
-10.2978
-14.1365
-2.84491
-2.68204
-3.31776
-2.60169
-1.46499
0.0926054
-5.99854
-6.23364
-6.02977
-6.50572
-7.75089
-7.72882
-7.7221
-8.31937
-8.36091
-7.34032
-7.78962
-11.6481
-10.9106
-5.07762
-4.59537
-3.90937
-2.98268
-2.10045
-3.73425
-6.09608
-6.34603
-5.94907
-6.28036
-6.96012
-7.01752
-7.10485
-7.41685
-6.73776
-5.64002
-5.56863
-13.5266
-6.52666
-5.73685
-5.0052
-4.36383
-3.48068
-2.24402
0.592683
-6.02428
-6.08474
-6.8792
-7.67422
-5.72294
-5.8335
-6.11681
-6.15387
-5.28453
-4.20708
-3.64643
-12.1079
-7.33152
-6.37379
-5.52604
-5.17653
-4.64571
-3.24635
-3.56424
-5.96916
-6.06364
-6.19289
-6.85826
-4.61989
-4.9097
-5.51891
-5.8842
-5.07119
-3.82948
2.12929
-5.86652
-7.58637
-6.69199
-6.1822
-6.37101
-7.27421
-7.61744
-3.19548
-5.99917
-6.02093
-6.3713
-6.31545
-5.47616
-5.18434
-5.56119
-6.38302
-5.61674
1.74382
3.97387
-2.44364
-6.85406
-8.85694
-7.72948
-7.23792
-9.15756
-7.49019
-10.9506
-5.99515
-6.0653
-6.17329
-5.67385
-5.64174
-5.4654
-5.55584
-5.51795
-5.1982
-3.75964
-0.705498
-0.517603
-6.58567
-12.3351
-10.3382
-7.71339
-9.44183
-13.5775
-13.2915
-5.98689
-5.84918
-4.61278
-5.57607
-5.69387
-5.64216
-5.59486
-5.66255
-6.27023
-6.72079
-3.57113
-4.18854
-6.91785
-10.7766
-10.0731
-7.7029
-10.238
-37.0723
-6.65137
869.615
875.727
877.48
871.647
864.886
860.675
859.104
859.708
862.265
866.843
873.756
883.489
896.627
913.909
935.863
963.219
996.092
1027.66
1039.27
1041.68
1034.35
1003.8
1071.83
809.394
815.794
817.264
811.53
805.092
801.155
799.72
800.347
802.874
807.407
814.277
823.966
837.029
854.028
875.421
901.508
931.578
961.616
978.099
981.456
987.816
883.92
988.929
747.535
753.973
755.284
749.849
744.143
740.793
739.63
740.297
742.754
747.192
753.97
763.57
776.515
793.283
814.21
839.169
866.789
892.827
911.187
927.623
937.997
787.2
900.455
684.15
690.522
691.738
686.883
682.234
679.658
678.827
679.522
681.87
686.167
692.814
702.285
715.072
731.585
751.999
775.939
801.864
826.317
845.027
859.597
856.679
765.751
857.045
619.347
625.704
626.946
622.983
619.572
617.807
617.285
617.97
620.172
624.297
630.78
640.087
652.683
668.917
688.842
711.936
736.65
760.123
779.112
792.165
792.03
763.761
851.278
553.293
559.725
561.261
558.463
556.298
555.248
554.95
555.575
557.604
561.538
567.833
576.944
589.323
605.274
624.769
647.214
671.136
694.104
713.446
727.389
734.188
746.386
833.634
486.211
492.866
495.003
493.531
492.458
491.938
491.754
492.272
494.115
497.851
503.936
512.815
524.949
540.624
559.764
581.759
605.244
628.105
648.02
663.39
674.821
698.437
774.757
418.429
425.385
428.35
428.248
428.003
427.796
427.618
427.997
429.649
433.186
439.037
447.637
459.499
474.914
493.774
515.504
538.866
561.986
582.736
599.423
612.427
630.012
662.708
318.007
318.01
318.004
317.986
317.956
317.917
317.873
317.831
317.793
317.763
317.743
317.733
317.733
317.742
317.759
317.78
317.801
317.817
317.825
317.947
317.951
317.947
317.929
317.898
317.858
317.814
317.771
317.733
317.703
317.682
317.672
317.673
317.682
317.699
317.721
317.742
317.759
317.767
317.886
317.893
317.892
317.874
317.841
317.799
317.754
317.71
317.671
317.641
317.62
317.61
317.611
317.621
317.639
317.662
317.684
317.702
317.711
317.824
317.836
317.84
317.821
317.785
317.74
317.693
317.647
317.608
317.577
317.556
317.546
317.547
317.558
317.578
317.602
317.627
317.647
317.656
317.76
317.778
317.79
317.77
317.729
317.681
317.631
317.583
317.542
317.511
317.49
317.48
317.482
317.494
317.515
317.542
317.571
317.593
317.604
317.696
317.718
317.742
317.719
317.673
317.621
317.567
317.517
317.475
317.443
317.422
317.412
317.414
317.428
317.451
317.482
317.515
317.541
317.554
317.622
317.655
317.684
317.667
317.615
317.56
317.502
317.45
317.406
317.373
317.352
317.342
317.345
317.36
317.386
317.422
317.46
317.492
317.507
317.539
317.543
317.569
317.605
317.555
317.497
317.435
317.379
317.334
317.301
317.279
317.27
317.273
317.289
317.319
317.361
317.406
317.444
317.463
330.46
337.689
343.026
344.207
344.491
344.386
344.085
344.246
345.653
348.957
354.475
362.606
374.043
389.122
407.736
429.373
452.937
476.856
499.08
517.271
529.284
527.328
412.982
188.361
189.356
203.117
203.627
202.889
202.333
201.706
201.555
202.641
205.522
209.89
216.535
226.698
240.941
259.675
281.702
306.703
333.805
360.385
382.511
395.356
390.86
363.203
84.2307
53.5373
61.3053
57.1284
56.2098
55.415
54.371
53.3042
52.5991
55.9046
60.2798
65.1894
75.8049
93.197
113.423
131.773
155.538
187.373
222.175
253.14
275.823
289.044
293.613
12.1144
0.929059
1.03964
1.04043
1.04959
1.06056
1.07534
1.09747
1.12799
1.16885
1.34282
1.39416
1.42431
1.48669
2.2435
5.92463
14.7057
48.7604
91.4272
130.613
162.351
190.868
218.903
0.838306
0.880101
0.884735
0.893659
0.904455
0.916985
0.931783
0.947853
0.951087
0.932567
1.08152
1.14585
1.20436
1.25141
1.2657
1.32122
1.38155
1.44509
1.87222
15.0676
54.9047
94.8546
133.225
0.709282
0.723634
0.733253
0.743261
0.755117
0.769088
0.785446
0.801867
0.797739
0.751914
0.867282
0.931915
0.98317
1.02266
1.0577
1.10964
1.17448
1.22322
1.14314
0.887609
0.805801
9.30388
41.412
0.558403
0.56949
0.579577
0.590305
0.602723
0.617108
0.633512
0.650588
0.662966
0.660641
0.706228
0.751217
0.791277
0.822065
0.849262
0.875945
0.885939
0.821297
0.604897
0.343629
0.315783
0.43132
0.629458
0.397019
0.412114
0.423329
0.434662
0.447186
0.461336
0.477069
0.493736
0.510095
0.523693
0.546834
0.575076
0.601861
0.622
0.633958
0.631639
0.592715
0.454421
0.0710773
-0.142118
0.028546
0.30178
0.480034
0.236684
0.254158
0.265501
0.276664
0.288851
0.30232
0.317013
0.332561
0.348385
0.36414
0.382062
0.401452
0.418497
0.429577
0.430084
0.41064
0.349189
0.191093
-0.192646
-0.270396
-0.0826877
0.205502
0.441064
0.0846777
0.096993
0.106522
0.116823
0.128207
0.140731
0.154304
0.168653
0.183404
0.198346
0.213647
0.228562
0.240787
0.247372
0.24397
0.222848
0.168601
0.046129
-0.193043
-0.216565
-0.0703133
0.132085
0.342059
-0.0674676
-0.0612361
-0.0537088
-0.0446882
-0.0343337
-0.0228008
-0.0102613
0.00304692
0.0168289
0.0308144
0.0446966
0.0577114
0.068392
0.0747175
0.0738367
0.0614141
0.0307047
-0.0278768
-0.143689
-0.151091
-0.0394388
0.0671991
0.174328
-0.224254
-0.221319
-0.215536
-0.207799
-0.198474
-0.187851
-0.176162
-0.163625
-0.150484
-0.137048
-0.123694
-0.110958
-0.0996427
-0.0908084
-0.0857645
-0.0859492
-0.092382
-0.104305
-0.117986
-0.103135
-0.0305781
0.0518893
0.10281
-0.385347
-0.383848
-0.379265
-0.372579
-0.364146
-0.354265
-0.343189
-0.331144
-0.318354
-0.305079
-0.29158
-0.278096
-0.264903
-0.252318
-0.24058
-0.229491
-0.21783
-0.202465
-0.177187
-0.134277
-0.0760526
-0.0210361
0.0261411
-0.550185
-0.5491
-0.545186
-0.539211
-0.531448
-0.52214
-0.511518
-0.499791
-0.487148
-0.473729
-0.459607
-0.444776
-0.42919
-0.412722
-0.395022
-0.37524
-0.351768
-0.322114
-0.283417
-0.234935
-0.181281
-0.129462
-0.0804001
-0.718201
-0.717068
-0.71346
-0.707924
-0.70065
-0.691807
-0.68156
-0.670058
-0.657394
-0.64358
-0.628541
-0.612139
-0.594168
-0.574288
-0.551911
-0.526086
-0.495503
-0.458771
-0.4151
-0.365459
-0.313062
-0.261186
-0.20979
-0.888703
-0.887383
-0.883909
-0.878652
-0.871734
-0.863257
-0.853306
-0.84193
-0.829117
-0.814789
-0.7988
-0.780956
-0.760982
-0.738458
-0.712762
-0.683067
-0.648474
-0.60834
-0.562746
-0.512871
-0.460774
-0.40817
-0.355013
-1.06126
-1.05969
-1.05625
-1.05116
-1.04447
-1.03624
-1.02646
-1.01511
-1.0021
-0.987321
-0.970604
-0.951719
-0.930352
-0.906071
-0.878316
-0.846443
-0.809876
-0.768355
-0.722237
-0.672573
-0.620765
-0.56784
-0.513795
-1.23609
-1.23427
-1.23081
-1.22579
-1.21922
-1.2111
-1.20138
-1.19
-1.17686
-1.16182
-1.1447
-1.12524
-1.10311
-1.07791
-1.04916
-1.0164
-0.979243
-0.937612
-0.891883
-0.842916
-0.791754
-0.739135
-0.685116
-1.4138
-1.41178
-1.40828
-1.40329
-1.39678
-1.38873
-1.37905
-1.3677
-1.35455
-1.33946
-1.32222
-1.30259
-1.28023
-1.25479
-1.22588
-1.19315
-1.15638
-1.11555
-1.07099
-1.02335
-0.973435
-0.921873
-0.868818
-1.59453
-1.59242
-1.5889
-1.58396
-1.57755
-1.56961
-1.56008
-1.54888
-1.53589
-1.52096
-1.50388
-1.48442
-1.46229
-1.43717
-1.40875
-1.37677
-1.34111
-1.30181
-1.25916
-1.21363
-1.16584
-1.11636
-1.06546
-1.77792
-1.77579
-1.77235
-1.76755
-1.76132
-1.75362
-1.74437
-1.73348
-1.72084
-1.7063
-1.68968
-1.67076
-1.64929
-1.625
-1.59765
-1.56708
-1.53322
-1.49616
-1.45616
-1.41362
-1.36906
-1.32303
-1.2759
-1.96351
-1.96147
-1.9582
-1.95362
-1.94768
-1.94033
-1.9315
-1.9211
-1.90903
-1.89515
-1.8793
-1.86129
-1.84093
-1.818
-1.79231
-1.76379
-1.73245
-1.69841
-1.6619
-1.62333
-1.58326
-1.5423
-1.50094
-2.15112
-2.14926
-2.14623
-2.14195
-2.13639
-2.1295
-2.12122
-2.11148
-2.10019
-2.08723
-2.07247
-2.05577
-2.03696
-2.01589
-1.99247
-1.96669
-1.93862
-1.90841
-1.87635
-1.84293
-1.80883
-1.77483
-1.74168
-2.34064
-2.33902
-2.33629
-2.33238
-2.32728
-2.32095
-2.31336
-2.30444
-2.29413
-2.28234
-2.26897
-2.25392
-2.23708
-2.21838
-2.19781
-2.17545
-2.15141
-2.12592
-2.09939
-2.07249
-2.04613
-2.0214
-1.99953
-2.53201
-2.53069
-2.52828
-2.52479
-2.52021
-2.51454
-2.50775
-2.49981
-2.49066
-2.48027
-2.46856
-2.45549
-2.44101
-2.42513
-2.40795
-2.38963
-2.37036
-2.35052
-2.33071
-2.31186
-2.29525
-2.28258
-2.27595
-2.72522
-2.72418
-2.72208
-2.71903
-2.71504
-2.71011
-2.70424
-2.6974
-2.68958
-2.68077
-2.67096
-2.66014
-2.64835
-2.63569
-2.62238
-2.60865
-2.59485
-2.58154
-2.56962
-2.56037
-2.55568
-2.55826
-2.57186
-2.92013
-2.91932
-2.91753
-2.91494
-2.91159
-2.90747
-2.90259
-2.89697
-2.89062
-2.88355
-2.87581
-2.86746
-2.85863
-2.84951
-2.84042
-2.83175
-2.824
-2.81798
-2.81491
-2.81664
-2.82595
-2.84709
-2.88675
-3.11653
-3.11592
-3.11443
-3.11234
-3.10966
-3.1064
-3.10259
-3.09827
-3.09347
-3.08826
-3.08272
-3.077
-3.07129
-3.06592
-3.06131
-3.058
-3.05667
-3.05841
-3.06484
-3.07851
-3.10331
-3.14578
-3.21731
-3.31422
-3.31377
-3.3126
-3.31102
-3.30903
-3.30667
-3.30398
-3.301
-3.29781
-3.29452
-3.29126
-3.28823
-3.28573
-3.2842
-3.28416
-3.28631
-3.2915
-3.3011
-3.3172
-3.343
-3.38362
-3.44832
-3.55467
-3.51295
-3.51263
-3.51179
-3.51074
-3.50947
-3.50803
-3.50647
-3.50485
-3.50329
-3.50193
-3.50095
-3.50062
-3.50132
-3.50356
-3.50802
-3.51548
-3.52699
-3.54417
-3.5695
-3.60668
-3.66174
-3.74588
-3.88127
-3.71241
-3.71224
-3.71177
-3.71126
-3.71072
-3.7102
-3.70976
-3.7095
-3.70954
-3.71007
-3.71131
-3.71359
-3.71735
-3.7232
-3.73189
-3.74429
-3.76163
-3.78572
-3.8193
-3.86624
-3.93284
-4.02972
-4.17706
-3.91227
-3.91234
-3.91227
-3.91232
-3.91251
-3.9129
-3.91356
-3.9146
-3.91618
-3.91852
-3.92186
-3.92658
-3.93318
-3.94232
-3.9548
-3.9716
-3.99401
-4.02404
-4.06448
-4.11925
-4.19414
-4.29699
-4.43599
-4.1123
-4.11271
-4.11307
-4.11369
-4.11461
-4.11587
-4.11758
-4.11986
-4.12289
-4.1269
-4.13217
-4.1391
-4.14822
-4.16022
-4.17594
-4.19639
-4.22296
-4.25769
-4.30341
-4.36405
-4.44501
-4.55166
-4.68465
-4.31233
-4.31315
-4.31398
-4.31517
-4.31679
-4.31889
-4.32159