/*--------------------------------*- C++ -*----------------------------------*\
| =========                 |                                                 |
| \\      /  F ield         | OpenFOAM: The Open Source CFD Toolbox           |
|  \\    /   O peration     | Version:  v1912                                 |
|   \\  /    A nd           | Website:  www.openfoam.com                      |
|    \\/     M anipulation  |                                                 |
\*---------------------------------------------------------------------------*/
FoamFile
{
    version     2.0;
    format      ascii;
    class       volScalarField;
    location    "0.4";
    object      p_rgh;
}
// * * * * * * * * * * * * * * * * * * * * * * * * * * * * * * * * * * * * * //

dimensions      [1 -1 -2 0 0 0 0];


internalField   nonuniform List<scalar> 
9072
(
883.364
886.864
892.436
889.84
882.753
877.137
874.307
873.87
875.459
879.001
884.695
892.95
904.307
919.419
938.985
963.523
993.811
1027.8
1051.62
1048.09
1055.56
1032.19
1059.05
881.225
885.418
891.176
888.483
881.65
876.354
873.731
873.366
874.946
878.447
884.096
892.308
903.614
918.568
937.706
961.462
989.748
1020.66
1046.43
1050.1
1069.43
994.195
999.785
877.466
882.549
888.175
885.411
879.185
874.595
872.4
872.176
873.727
877.138
882.692
890.817
902.025
916.828
935.653
958.658
985.256
1012.84
1035.6
1050.04
1074.97
965.839
928.417
872.215
878.199
883.553
880.89
875.608
871.988
870.339
870.272
871.764
875.042
880.459
888.456
899.525
914.134
932.601
954.878
980.11
1005.86
1027.82
1043.53
1057.54
970.519
954.064
865.646
872.415
877.571
875.285
871.211
868.66
867.555
867.611
869.006
872.117
877.365
885.2
896.097
910.482
928.582
950.209
974.389
998.911
1020.48
1036.55
1045.69
1023.48
1037.8
858.016
865.375
870.52
868.959
866.223
864.675
864.015
864.129
865.391
868.312
873.371
881.016
891.709
905.852
923.608
944.7
968.131
991.925
1013.37
1030.19
1040.72
1043.64
1091.72
849.717
857.367
862.713
862.194
860.764
860.024
859.66
859.754
860.857
863.583
868.441
875.864
886.318
900.205
917.651
938.337
961.3
984.769
1006.43
1024.18
1037.1
1049.9
1099.64
841.322
848.714
854.355
855.119
854.832
854.634
854.405
854.418
855.347
857.877
862.525
869.686
879.86
893.485
910.662
931.066
953.814
977.314
999.512
1018.36
1032.88
1046.18
1074.79
318.019
318.023
318.023
318.012
317.987
317.952
317.91
317.866
317.826
317.791
317.766
317.751
317.746
317.751
317.765
317.784
317.806
317.825
317.837
318.015
318.023
318.024
318.013
317.988
317.952
317.91
317.866
317.825
317.79
317.765
317.75
317.745
317.75
317.764
317.783
317.806
317.825
317.838
318.008
318.023
318.027
318.018
317.991
317.953
317.909
317.864
317.822
317.787
317.761
317.746
317.742
317.747
317.762
317.782
317.806
317.827
317.84
317.995
318.023
318.031
318.025
317.996
317.955
317.908
317.861
317.818
317.782
317.756
317.741
317.736
317.743
317.758
317.781
317.806
317.829
317.845
317.973
318.024
318.035
318.034
318.001
317.956
317.906
317.856
317.812
317.775
317.749
317.734
317.73
317.737
317.754
317.778
317.807
317.833
317.851
317.932
318.03
318.039
318.046
318.006
317.956
317.903
317.851
317.804
317.767
317.74
317.725
317.721
317.729
317.747
317.775
317.808
317.838
317.859
317.875
318.038
318.084
318.055
318.009
317.956
317.899
317.843
317.794
317.756
317.729
317.713
317.71
317.718
317.739
317.771
317.809
317.845
317.87
317.736
318.011
318.028
318.07
318.008
317.953
317.892
317.833
317.782
317.743
317.715
317.7
317.696
317.706
317.729
317.766
317.81
317.854
317.884
828.672
836.044
843.249
846.021
846.565
846.656
846.395
846.226
846.916
849.208
853.596
860.337
870.048
883.292
900.175
920.394
943.179
967.129
990.503
1010.97
1026.4
1034
1013.13
834.058
812.129
825.263
831.427
830.547
829.992
829.365
828.887
829.257
831.227
834.877
840.195
848.494
860.647
877.076
897.547
921.267
947.429
974.8
999.598
1017.91
1023.41
1006.13
877.021
813.738
731.358
781.727
771.175
771.083
767.165
763.288
760.954
764.941
774.227
784.826
806.118
833.124
855.953
874.572
895.773
922.605
957.751
990.931
1018.22
1036.14
1044.62
144.281
2.25871
1.894
1.91627
1.92274
1.93262
1.94505
1.96279
1.99284
2.00823
2.14378
2.27088
2.2965
2.34254
6.30857
67.3273
226.101
609.81
948.025
990.455
1024.6
1054.71
1082.29
1.84244
1.87358
1.88497
1.89201
1.90181
1.9134
1.92709
1.94326
1.95838
1.95111
2.48166
2.57551
2.58786
2.492
2.44414
2.50639
2.35612
2.41166
2.79836
138.234
937.278
1078.7
1116.44
1.82813
1.84513
1.85711
1.86632
1.87718
1.88994
1.90516
1.92239
1.93615
1.89008
2.19039
2.02962
2.08766
2.13233
2.16754
2.21004
2.2689
2.40656
2.45518
2.32482
2.15742
82.8901
904.097
1.79378
1.81802
1.82815
1.83821
1.84963
1.86298
1.87844
1.89547
1.91173
1.91387
1.93241
1.99617
2.03697
2.06083
2.09007
2.11703
2.13888
2.1186
2.60326
2.31631
1.63428
1.66244
1.96508
1.75556
1.78457
1.79667
1.80745
1.81926
1.83258
1.84755
1.86388
1.88061
1.89552
1.91197
1.93958
1.96766
1.99145
2.0079
2.01397
2.0006
1.92027
2.13367
1.95752
1.33381
1.54912
1.7825
1.72613
1.75145
1.76388
1.7747
1.78633
1.79914
1.81325
1.82844
1.8442
1.85997
1.87641
1.8956
1.91419
1.9289
1.93536
1.92753
1.89365
1.79046
2.16274
1.66658
1.30258
1.56514
1.8388
1.69982
1.72034
1.73063
1.74046
1.75129
1.76324
1.77632
1.79032
1.80492
1.81976
1.83486
1.8502
1.86409
1.87393
1.87622
1.86525
1.83025
1.74862
1.608
1.96391
1.4725
1.65865
1.89163
1.67041
1.68913
1.69648
1.70473
1.71445
1.72541
1.73747
1.75043
1.76401
1.77792
1.79191
1.8055
1.81757
1.82636
1.82952
1.82353
1.80301
1.75983
1.67194
2.03318
1.6596
1.77614
2.971
1.63676
1.65578
1.66063
1.66742
1.67599
1.686
1.69718
1.70932
1.72219
1.73553
1.74897
1.7621
1.77424
1.78447
1.79158
1.79419
1.79094
1.78147
1.76699
1.76232
1.80468
1.89446
1.95718
1.5991
1.61923
1.62267
1.62834
1.63594
1.64513
1.65564
1.66723
1.67967
1.69274
1.70616
1.71968
1.73306
1.74599
1.75816
1.7695
1.78063
1.79359
1.81287
1.84631
1.8985
1.95697
2.00722
1.55793
1.5795
1.58228
1.58726
1.59416
1.60272
1.61272
1.62392
1.63612
1.64917
1.66294
1.67742
1.69261
1.70862
1.72563
1.74423
1.7656
1.7918
1.82566
1.86945
1.92144
1.97493
2.02469
1.51385
1.53681
1.53938
1.54397
1.5504
1.55848
1.56805
1.57894
1.59103
1.60426
1.61867
1.63437
1.65153
1.6704
1.69143
1.71539
1.74341
1.77691
1.81709
1.86402
1.91554
1.96793
2.0193
1.46747
1.49168
1.49421
1.49859
1.50469
1.5124
1.52163
1.53229
1.54438
1.55794
1.57307
1.58996
1.60883
1.63001
1.65403
1.68162
1.71365
1.75097
1.79391
1.84186
1.89312
1.9456
1.99835
1.41893
1.44451
1.4471
1.45138
1.45727
1.46473
1.47374
1.4843
1.49646
1.51034
1.52606
1.54383
1.56391
1.58667
1.61262
1.64235
1.67651
1.71555
1.75946
1.80752
1.85843
1.91087
1.96428
1.36782
1.39505
1.39774
1.40199
1.40778
1.41512
1.42403
1.43457
1.44681
1.46089
1.47694
1.4952
1.51595
1.53955
1.56647
1.59717
1.63209
1.6715
1.71526
1.76274
1.81293
1.86487
1.91815
1.31378
1.34268
1.34546
1.3497
1.35545
1.36272
1.37158
1.38208
1.39432
1.40842
1.42455
1.44295
1.4639
1.48775
1.51488
1.54566
1.58039
1.61921
1.66198
1.70817
1.75704
1.80784
1.86013
1.25691
1.28721
1.29003
1.29426
1.29992
1.30709
1.31582
1.32617
1.33825
1.35219
1.36817
1.3864
1.40716
1.43074
1.45748
1.48766
1.52146
1.55896
1.59999
1.64415
1.69089
1.73958
1.78978
1.19761
1.22903
1.23182
1.23594
1.24145
1.24841
1.25688
1.26693
1.27868
1.29224
1.3078
1.32554
1.3457
1.36855
1.39434
1.42329
1.45551
1.49099
1.52955
1.57088
1.6145
1.65986
1.70648
1.13621
1.16859
1.17125
1.17517
1.18042
1.18706
1.19514
1.20475
1.21597
1.22893
1.24377
1.26067
1.27983
1.30145
1.32574
1.35284
1.38278
1.41549
1.45081
1.48841
1.5278
1.56839
1.60961
1.07286
1.1061
1.10855
1.1122
1.11711
1.12333
1.1309
1.1399
1.15041
1.16252
1.17636
1.19207
1.20981
1.22973
1.25197
1.27657
1.30351
1.33267
1.36386
1.39668
1.43053
1.46467
1.49834
1.00764
1.04166
1.04384
1.04716
1.05166
1.05737
1.06432
1.07257
1.08218
1.09322
1.10578
1.11998
1.13591
1.15367
1.17331
1.19479
1.21801
1.24281
1.26889
1.29571
1.32246
1.34815
1.37161
0.940569
0.975322
0.977206
0.980165
0.9842
0.989319
0.995544
1.00291
1.01144
1.02121
1.03225
1.04463
1.05841
1.07359
1.09014
1.10791
1.12674
1.14635
1.16628
1.18574
1.20365
1.21853
1.22845
0.87174
0.907162
0.908773
0.911358
0.91488
0.919339
0.924738
0.931092
0.938415
0.946728
0.956041
0.966359
0.97767
0.989911
1.00293
1.01649
1.0303
1.04394
1.05669
1.06748
1.07472
1.07616
1.06858
0.801312
0.837322
0.838697
0.840896
0.843866
0.847604
0.852101
0.857349
0.863339
0.870055
0.877466
0.885519
0.89413
0.903142
0.912287
0.92122
0.929509
0.936516
0.941245
0.942196
0.9371
0.922514
0.893065
0.729491
0.766006
0.767166
0.768963
0.771349
0.774322
0.777858
0.781927
0.786495
0.791511
0.796898
0.802547
0.808296
0.813884
0.818933
0.822965
0.82539
0.825351
0.821515
0.81185
0.79323
0.760628
0.705345
0.656481
0.693439
0.694389
0.695766
0.697543
0.699718
0.702253
0.705097
0.708191
0.711447
0.714744
0.717917
0.720722
0.722801
0.723662
0.7227
0.719165
0.711977
0.699445
0.678988
0.646605
0.595471
0.512828
0.582554
0.619862
0.620594
0.621531
0.622681
0.624038
0.62555
0.627152
0.628754
0.630237
0.631435
0.632129
0.632002
0.630604
0.62734
0.621492
0.612168
0.598072
0.577189
0.546503
0.501372
0.433651
0.32779
0.508057
0.545558
0.546039
0.546507
0.547016
0.547549
0.54804
0.548407
0.548537
0.548276
0.547425
0.545712
0.542757
0.538036
0.530868
0.520445
0.505759
0.485325
0.456886
0.417224
0.361461
0.281474
0.162932
0.433326
0.470806
0.47098
0.47095
0.470807
0.470522
0.470014
0.469183
0.467891
0.46596
0.463161
0.459183
0.453595
0.445819
0.435116
0.420611
0.401206
0.37528
0.340453
0.293432
0.229471
0.141656
0.0219762
0.358598
0.395834
0.395633
0.395082
0.394287
0.393203
0.391733
0.389759
0.387128
0.38364
0.37904
0.372995
0.365046
0.354584
0.340838
0.322893
0.299593
0.269252
0.229434
0.176833
0.106779
0.013511
-0.106877
0.284008
0.320825
0.32019
0.319105
0.317672
0.31582
0.313437
0.310393
0.306527
0.301623
0.295412
0.287549
0.277568
0.264862
0.248659
0.228029
0.201801
0.168301
0.125132
0.068933
-0.00497086
-0.102225
-0.226902
0.209593
0.245918
0.244831
0.243222
0.241179
0.238604
0.235371
0.231349
0.22637
0.220214
0.212607
0.203208
0.191565
0.177102
0.159079
0.136586
0.108493
0.0732329
0.0285243
-0.0289223
-0.103726
-0.201679
-0.329143
0.135346
0.171211
0.169691
0.167597
0.164991
0.161753
0.15775
0.152851
0.146891
0.139653
0.130878
0.120237
0.10731
0.0915787
0.072372
0.0488493
0.0199733
-0.0156197
-0.0599406
-0.116024
-0.188036
-0.281458
-0.403825
0.0612915
0.0967448
0.0948467
0.0923211
0.0892087
0.0853726
0.0806821
0.0750119
0.068204
0.0600566
0.0503327
0.0387343
0.0248849
0.00834008
-0.0114634
-0.0352459
-0.0638901
-0.0984892
-0.140603
-0.19269
-0.258143
-0.341237
-0.448361
-0.012387
0.0226623
0.020447
0.0175513
0.0139907
0.00962101
0.00432267
-0.00201845
-0.0095466
-0.0184437
-0.0289174
-0.0412237
-0.0556792
-0.0726433
-0.0925527
-0.115958
-0.143524
-0.176009
-0.214437
-0.26046
-0.316331
-0.384659
-0.468971
-0.0854233
-0.0508245
-0.0533102
-0.0565255
-0.0604821
-0.0653248
-0.0711542
-0.0780715
-0.0862051
-0.0957143
-0.106773
-0.119585
-0.134397
-0.151479
-0.17113
-0.1937
-0.219583
-0.249182
-0.282963
-0.321693
-0.366375
-0.417888
-0.477178
-0.157855
-0.123727
-0.126524
-0.130028
-0.134345
-0.139611
-0.145909
-0.153331
-0.161987
-0.172009
-0.183537
-0.19672
-0.211735
-0.228756
-0.247946
-0.269449
-0.293374
-0.319764
-0.348571
-0.379705
-0.412911
-0.447503
-0.482677
-0.226931
-0.195817
-0.198967
-0.202744
-0.20741
-0.213063
-0.219784
-0.227659
-0.236779
-0.247252
-0.259181
-0.272665
-0.28781
-0.304696
-0.32336
-0.343766
-0.365771
-0.389078
-0.413174
-0.437216
-0.459848
-0.478904
-0.491517
-0.298451
-0.264515
-0.26806
-0.272121
-0.277079
-0.283041
-0.290099
-0.298334
-0.307825
-0.318655
-0.330896
-0.344603
-0.359818
-0.37654
-0.394699
-0.414127
-0.434499
-0.455259
-0.475518
-0.493887
-0.50822
-0.515326
-0.510464
735.823
757.564
523.018
324.159
964.216
927.841
925.112
930.954
1047.8
1055
1072.56
1096.2
1109.57
1129.4
1154.85
1189.92
1151.57
1172.78
1195.83
1218.86
1185.16
1206.55
1226.42
1246.04
23.2936
214.564
659.127
1194.8
1.91655
1.99804
2.1826
2.50602
1.99943
2.0481
3.15724
2.25598
3.57895
3.80846
3.80387
2.14489
3.84823
2.51606
2.05906
2.09079
2.00809
2.04456
2.07968
2.11364
2.05052
2.0783
2.10752
2.13821
2.0685
2.09443
2.12153
2.15002
2.06473
2.09078
2.11768
2.14569
2.04524
2.07179
2.09899
2.12711
2.01197
2.03887
2.0664
2.0947
1.96582
1.99265
2.02013
2.04834
1.90691
1.93314
1.95994
1.98748
1.83458
1.85958
1.88505
1.91122
1.74781
1.77077
1.79415
1.81806
1.64556
1.66535
1.6854
1.70568
1.52653
1.54155
1.55644
1.57099
1.38894
1.39709
1.40438
1.41026
1.23081
1.22921
1.22547
1.21827
1.05051
1.03497
1.01485
0.98768
0.84771
0.812322
0.767805
0.709999
0.625341
0.562896
0.482979
0.378828
0.393504
0.297683
0.169673
-0.00495703
0.176532
0.0528231
-0.12007
-0.371947
0.00395407
-0.121874
-0.297187
-0.553681
-0.116043
-0.206309
-0.313052
-0.45082
-0.229606
-0.296411
-0.353344
-0.390667
-0.356675
-0.431717
-0.504949
-0.575977
-0.469816
-0.559558
-0.65865
-0.772192
-0.543978
-0.63821
-0.74904
-0.886712
-0.570573
-0.653081
-0.752
-0.882914
-0.560227
-0.618572
-0.685373
-0.769334
-0.536241
-0.571034
-0.607846
-0.646467
-0.51358
-0.530896
-0.549606
-0.570374
-0.494484
-0.49247
-0.488465
-0.484611
-0.490834
-0.472414
-0.447104
-0.414034
317.891
317.773
317.779
317.984
317.998
317.948
317.881
317.816
317.762
317.722
317.694
317.679
317.676
317.686
317.713
317.756
317.811
317.867
317.907
326.096
326.893
317.899
317.928
317.985
317.937
317.855
317.774
317.714
317.675
317.649
317.635
317.631
317.642
317.674
317.73
317.81
317.898
317.965
417.541
321.749
318.364
318.037
317.997
317.946
317.82
317.703
317.64
317.61
317.593
317.581
317.573
317.579
317.612
317.683
317.798
317.942
318.063
795.864
400.289
318.562
318.194
317.903
318.021
317.783
317.575
317.52
317.508
317.531
317.527
317.505
317.492
317.518
317.598
317.754
317.995
318.23
1243.61
1231.74
1226.66
973.474
317.514
318.093
317.748
317.315
317.37
317.308
317.329
317.522
317.423
317.371
317.379
317.449
317.631
318.022
318.525
1271.13
1297.81
1318.04
1358.62
1401.48
1158.11
708.352
1031.73
996.691
316.694
406.376
317.463
317.319
317.156
317.197
317.211
317.323
317.84
319.043
1300.79
1331.41
1357.64
1388.35
1422.32
1453.45
1455.72
1421.24
1455.18
1505.41
1477.04
1035.52
317.262
316.665
316.913
316.902
316.673
316.618
319.564
9.47832
378.343
1012.63
1397.5
1440.71
1464.47
1477.76
1475.89
1486.81
1511.33
1546.09
1589.21
1615.07
1604.16
503.939
316.563
315.639
312.913
338.855
2.27114
2.60276
2.3874
2.86982
23.0617
176.96
407.288
626.455
913.338
1268.23
1557.62
1595.29
1637.08
1698.66
1790.25
557.654
314.636
312.402
308.978
3.04667
2.92129
2.30881
2.42051
2.54103
2.68537
2.82019
2.92887
3.11683
3.40837
4.88082
251.314
1322.14
1705.56
1795.75
1890.19
656.258
314.117
314.834
2.13552
2.22072
2.33537
2.44647
2.56109
2.68492
2.81316
2.94055
3.07624
3.20511
3.32449
3.47917
3.77809
95.2482
1619.15
1881.91
1981.88
853.373
324.125
2.15927
2.25113
2.35177
2.45853
2.57305
2.69628
2.82634
2.96085
3.09696
3.22445
3.35263
3.51045
3.68105
3.83815
4.48086
729.239
1982.8
2176.36
2486.51
2.18094
2.26479
2.36041
2.4646
2.57834
2.70191
2.83412
2.97322
3.11641
3.25656
3.39201
3.54921
3.7304
3.89673
4.02571
4.22439
425.117
2299.93
2862.18
2.19033
2.26987
2.36112
2.46311
2.57626
2.7006
2.83541
2.9795
3.13098
3.28631
3.44072
3.59966
3.77578
3.95355
4.09392
4.16181
4.46623
1999.18
2688.02
2.18519
2.26258
2.35145
2.45208
2.56504
2.69041
2.82802
2.97737
3.13721
3.30527
3.47809
3.65233
3.82903
4.00719
4.16547
4.2348
4.33895
1978.35
2531.08
2.16645
2.24277
2.33029
2.43005
2.54292
2.66925
2.80958
2.96419
3.13226
3.3118
3.50001
3.69337
3.88575
4.07022
4.23871
4.34173
4.78881
2336.28
2515.66
2.13403
2.20961
2.29603
2.39494
2.50743
2.63432
2.77694
2.93624
3.11171
3.30215
3.50607
3.72039
3.93723
4.14334
4.32611
4.46461
4.88779
2418.28
2552.57
2.08736
2.1618
2.24673
2.34418
2.45554
2.58205
2.72584
2.88831
3.06928
3.26945
3.49113
3.73264
3.98234
4.22353
4.43828
4.60326
4.76469
2476.78
1770.13
2.02562
2.09786
2.18012
2.27476
2.38351
2.50793
2.65068
2.81355
2.99678
3.20445
3.44746
3.72753
4.02298
4.31284
4.58044
4.80676
13.9755
2433.88
486.96
1.9475
2.01565
2.09319
2.18278
2.28649
2.40596
2.54425
2.70368
2.88439
3.09362
3.36256
3.70327
4.0595
4.40983
4.74743
5.03269
5.40044
1779.87
467.773
1.85097
1.91215
1.98189
2.0631
2.15806
2.2684
2.39778
2.5492
2.72075
2.91035
3.19783
3.66337
4.09206
4.504
4.93396
5.32305
5.67532
1031.41
2610.08
1.73311
1.78324
1.84068
1.90874
1.99001
2.08635
2.20169
2.33799
2.47848
2.59376
4.06829
5.76138
4.10831
4.56295
5.13531
5.66455
6.04754
1766.54
2336.51
1.58993
1.62301
1.66138
1.70969
1.77202
1.85081
1.94847
2.06318
2.17121
2.26207
4.98725
5.39942
4.35285
4.46304
5.36745
6.04497
6.15557
46.4998
1364.89
1.416
1.4226
1.43157
1.45183
1.49157
1.55399
1.63736
1.73535
1.83972
2.38667
2.8782
4.70706
2.73133
10.945
5.73838
6.69666
7.0304
7.4258
1250.31
1.2035
1.16858
1.132
1.11394
1.13164
1.1876
1.26903
1.36222
1.47342
1.67249
1.90598
1.83624
1.89597
15.0979
18.6577
7.93952
7.88401
8.07671
1385.74
0.94117
0.839558
0.729063
0.657018
0.661424
0.736981
0.840309
0.941817
1.05251
1.20979
1.48291
1.55168
3.53804
3.97383
17.9063
16.0295
8.04622
7.88073
1244.08
0.613769
0.399085
0.156927
-0.00219531
0.0178545
0.177447
0.347015
0.476181
0.574753
0.66303
1.24671
11.6571
10.5069
1.36815
15.6426
18.938
7.45332
9.05795
1734.65
0.203212
-0.22974
-0.778805
-1.1049
-0.95384
-0.529169
-0.206132
-0.0119163
0.0415329
2.24104
10.2135
6.21914
-1.46181
-1.34385
11.6721
16.5634
5.58327
4.19381
1668.83
-0.32251
-1.36156
-2.52775
-2.77211
-2.62448
-1.44831
-0.795545
-0.437913
-0.349955
-0.780416
0.836558
-1.8237
-2.53001
-2.62428
11.8324
15.2878
4.36074
6.6306
1110.5
-0.90353
-1.91596
5.5088
-5.17835
-2.40637
-1.9942
-1.26934
-0.661406
-0.343012
0.0256976
3.50686
-2.39932
-3.33224
-3.46753
10.6261
1.88356
5.17326
7.46301
1481.37
-1.15686
108.969
-3.56793
-4.26676
-1.95779
-1.36908
-1.39024
-0.795829
2.06591
6.21012
-1.49363
-2.28504
-3.22498
-1.18048
-1.22439
2.31984
5.42923
8.63728
1774.65
-0.715801
119.173
21.2237
82.4336
124.873
126.325
-1.28183
0.953904
6.63644
-1.04366
-1.67133
-2.01175
-2.4664
-2.18362
-0.110329
2.93583
4.49072
784.063
784.117
-0.338886
48.6367
76.4107
-1.79034
-2.42818
-2.46671
2.16468
5.59955
-0.607461
-1.50499
-0.217695
-2.23715
-2.79198
-2.44333
0.321416
170.51
886.359
910.779
224.934
-0.674596
-0.869134
-1.92409
-2.19311
-2.95096
-3.01623
-2.73816
5.11447
-2.12582
-1.40889
-1.05502
-3.40767
-4.09062
29.1696
792.458
850.57
474.427
26.1576
74.6047
-0.971195
1.28396
0.103678
-1.90835
-3.30331
-3.23346
-2.93351
4.65467
-2.39948
0.046612
-3.04704
-5.30768
209.619
698.653
276.692
3.82931
2.89766
3.81814
17.1603
-1.11129
-0.644876
-0.647933
-1.45687
-2.71661
-2.75949
-1.60113
-2.34562
-0.220851
0.706972
-2.41306
5.30231
639.898
26.8103
0.48027
1.0023
1.91947
2.81512
11.4018
-1.08423
-0.750372
-0.904455
-1.22755
-0.264715
-0.322115
-1.91533
0.70139
1.63716
0.938853
0.138311
515.819
66.9195
-0.616309
0.00780105
0.646127
1.52904
2.76772
97.44
-0.889816
-0.909346
172.425
135.482
-0.432719
-0.0553686
-0.860008
-0.721259
0.883172
1.25352
1.81418
668.128
-0.869567
-1.14424
-0.388518
-0.0418535
0.488941
1.88843
272.165
-0.709583
-0.797827
44.3926
200.3
16.9174
0.460534
0.196379
0.291391
0.548036
13.993
737.011
754.084
6.90728
-0.624448
-0.871062
-1.10906
-2.01431
-2.34312
581.915
-0.614385
0.039584
15.133
5.81231
0.414745
0.311967
0.382601
-0.768658
724.714
830.552
826.906
51.6251
-1.15715
-3.12571
-2.31312
-1.85006
-3.77171
13.0637
514.147
-0.485168
-0.546192
83.9865
-0.142717
-0.00460875
0.681742
0.575802
0.0778417
215.031
842.677
43.5557
4.99036
-1.07082
-5.66374
-3.93594
-2.19448
-0.887092
437.681
409.745
-0.351743
-0.214237
75.993
0.0616419
-0.0536849
0.527856
0.229752
0.0182418
0.0828123
2.57066
2.06648
1.4466
-1.28236
-3.88806
-3.18293
-2.02597
57.0899
347.618
0.0142007
884.329
890.442
892.195
886.362
879.601
875.39
873.819
874.422
876.979
881.558
888.47
898.204
911.342
928.624
950.578
977.934
1010.81
1042.37
1052.84
1054.31
1048.04
1018.5
1086.54
882.967
889.367
890.838
885.104
878.665
874.729
873.293
873.921
876.447
880.981
887.85
897.539
910.602
927.601
948.994
975.081
1005.15
1035.19
1051.67
1055.03
1061.39
950.466
1062.47
879.967
886.405
887.716
882.281
876.575
873.225
872.062
872.729
875.186
879.624
886.402
896.002
908.947
925.715
946.642
971.601
999.221
1025.26
1043.62
1060.05
1069.56
898.318
1031.7
875.441
881.812
883.028
878.173
873.525
870.948
870.118
870.813
873.16
877.458
884.105
893.575
906.362
922.876
943.289
967.23
993.155
1017.61
1036.32
1050.89
1047.97
926.29
1047.19
869.497
875.854
877.095
873.132
869.721
867.957
867.435
868.12
870.321
874.447
880.93
890.237
902.833
919.067
938.991
962.085
986.8
1010.27
1029.26
1042.31
1042.18
999.768
1101.4
862.302
868.734
870.27
867.471
865.307
864.257
863.959
864.584
866.613
870.547
876.842
885.953
898.332
914.283
933.777
956.223
980.144
1003.11
1022.45
1036.4
1043.2
1055.39
1142.64
854.078
860.733
862.87
861.399
860.325
859.806
859.621
860.139
861.982
865.718
871.803
880.682
892.816
908.491
927.631
949.626
973.111
995.972
1015.89
1031.26
1042.69
1066.3
1142.62
845.155
852.11
855.075
854.974
854.729
854.521
854.343
854.722
856.375
859.912
865.763
874.363
886.225
901.64
920.5
942.23
965.592
988.712
1009.46
1026.15
1039.15
1056.74
1089.43
318.022
318.024
318.019
318.001
317.971
317.931
317.888
317.845
317.808
317.778
317.757
317.747
317.747
317.757
317.774
317.795
317.816
317.832
317.839
318.021
318.025
318.021
318.003
317.972
317.932
317.888
317.844
317.806
317.776
317.756
317.746
317.746
317.756
317.773
317.794
317.816
317.833
317.84
318.018
318.026
318.025
318.006
317.973
317.932
317.886
317.842
317.803
317.773
317.753
317.743
317.743
317.753
317.771
317.794
317.817
317.835
317.843
318.015
318.027
318.031
318.012
317.976
317.932
317.884
317.839
317.799
317.768
317.747
317.737
317.738
317.749
317.769
317.793
317.818
317.838
317.847
318.01
318.028
318.04
318.02
317.979
317.931
317.881
317.833
317.792
317.761
317.74
317.73
317.732
317.744
317.765
317.793
317.821
317.843
317.854
318.005
318.027
318.051
318.028
317.982
317.93
317.876
317.826
317.784
317.752
317.731
317.721
317.723
317.737
317.76
317.791
317.824
317.85
317.863
317.99
318.042
318.079
318.035
317.983
317.927
317.87
317.817
317.774
317.741
317.72
317.71
317.713
317.727
317.754
317.79
317.828
317.86
317.875
317.967
317.999
318.072
318.032
317.982
317.923
317.862
317.806
317.761
317.727
317.706
317.696
317.699
317.716
317.746
317.787
317.833
317.871
317.89
832.629
839.857
845.195
846.375
846.66
846.554
846.253
846.414
847.822
851.125
856.643
864.775
876.211
891.29
909.904
931.541
955.106
979.024
1001.25
1019.44
1031.45
1029.5
915.151
815.724
816.712
830.477
830.989
830.251
829.695
829.069
828.918
830.004
832.885
837.253
843.898
854.061
868.305
887.038
909.065
934.066
961.168
987.749
1009.87
1022.72
1018.22
990.566
836.786
719.268
779.673
773.362
771.735
769.311
765.08
761.967
761.594
769.891
778.58
794.169
819.517
845.432
865.98
884.33
908.095
939.93
974.732
1005.7
1028.38
1041.6
1046.17
344.643
1.80684
1.91739
1.91818
1.92735
1.93832
1.95309
1.97522
2.00574
2.0467
2.22804
2.28553
2.31443
2.37677
27.1251
129.286
376.327
905.584
969.179
1008.36
1040.1
1068.62
1096.65
1.84125
1.88305
1.88768
1.89661
1.9074
1.91993
1.93473
1.9508
1.95404
2.3853
2.54643
2.5936
2.5215
2.45752
2.48172
2.45811
2.38607
2.51043
15.3756
441.036
1057.83
1097.8
1136.17
1.83743
1.85178
1.8614
1.87141
1.88326
1.89723
1.91359
1.93001
1.92588
2.274
1.99543
2.06022
2.11136
2.15085
2.18589
2.23783
2.30267
2.47568
2.40035
2.24977
2.76172
347.106
1169.46
1.81174
1.82283
1.83292
1.84365
1.85606
1.87045
1.88685
1.90393
1.91631
1.91398
1.95957
2.01814
2.04489
2.07621
2.10356
2.12934
2.13933
2.43467
2.46614
1.87314
1.59873
1.76422
2.67211
1.77554
1.79064
1.80185
1.81319
1.82571
1.83986
1.85559
1.87226
1.88862
1.90223
1.92536
1.95531
1.98045
2.00058
2.01249
2.01256
1.97282
1.83295
2.12202
1.77152
1.40915
1.68149
1.86452
1.7404
1.75788
1.76922
1.78039
1.79257
1.80604
1.82073
1.83628
1.85211
1.86789
1.88581
1.90517
1.92226
1.93345
1.93381
1.91491
1.85358
1.69481
2.03671
1.23938
1.42112
1.70926
1.94493
1.71359
1.72591
1.73544
1.74574
1.75712
1.76965
1.78322
1.79757
1.81232
1.82726
1.84256
1.85748
1.8697
1.87633
1.87289
1.85176
1.79752
1.67505
2.219
1.41808
1.55861
1.76633
2.77869
1.68664
1.69288
1.7004
1.70942
1.71978
1.73131
1.74385
1.75716
1.77094
1.78493
1.79881
1.81182
1.8225
1.82883
1.82795
1.81553
1.78482
1.72623
1.61044
1.94879
1.71468
1.83437
3.79298
1.65505
1.65799
1.66377
1.67151
1.68083
1.69146
1.70314
1.71568
1.72882
1.74226
1.75561
1.76835
1.77966
1.7885
1.79354
1.79336
1.78692
1.775
1.76132
1.77618
1.84873
1.93124
1.98256
1.61915
1.62065
1.62524
1.63192
1.64036
1.65024
1.66131
1.67336
1.68615
1.69942
1.71292
1.72641
1.7396
1.75218
1.76392
1.77501
1.78667
1.80204
1.82732
1.87023
1.92847
1.98347
2.03064
1.57951
1.5806
1.58451
1.59049
1.59825
1.60756
1.61818
1.62991
1.64255
1.65597
1.67009
1.68492
1.70051
1.71698
1.73467
1.75446
1.77793
1.80758
1.84628
1.89476
1.94842
2.00024
2.0493
1.53669
1.53782
1.54143
1.54697
1.55424
1.56309
1.57333
1.58483
1.5975
1.61131
1.62635
1.64275
1.66072
1.6806
1.70298
1.72881
1.75939
1.79612
1.83979
1.88943
1.94183
1.99371
2.0451
1.49138
1.4927
1.49618
1.50144
1.50835
1.51683
1.52678
1.53816
1.55097
1.5653
1.58129
1.59913
1.61911
1.64163
1.66733
1.69702
1.73161
1.77175
1.81734
1.86722
1.91931
1.97192
2.02507
1.44402
1.44559
1.44903
1.45413
1.46081
1.46905
1.47882
1.49018
1.50318
1.51796
1.53468
1.55356
1.57493
1.59921
1.62697
1.65884
1.69541
1.73693
1.78305
1.83271
1.88452
1.93744
1.99149
1.39438
1.39621
1.39967
1.40469
1.41126
1.41938
1.42909
1.44047
1.45361
1.46866
1.48578
1.50524
1.52737
1.55257
1.58131
1.61408
1.65123
1.69287
1.7386
1.78756
1.83872
1.89134
1.94536
1.34188
1.34389
1.34739
1.35239
1.35889
1.36695
1.37662
1.38797
1.40112
1.41622
1.43345
1.45309
1.47544
1.50088
1.52979
1.56252
1.59929
1.64013
1.68469
1.73232
1.78224
1.8338
1.88685
1.28634
1.28845
1.29197
1.29691
1.30332
1.31126
1.32079
1.33199
1.34498
1.35991
1.37699
1.39645
1.41857
1.4437
1.47212
1.5041
1.53976
1.57905
1.62171
1.66724
1.71503
1.76451
1.8154
1.22815
1.23027
1.23371
1.23852
1.24474
1.25245
1.2617
1.27259
1.28522
1.29976
1.31638
1.3353
1.35677
1.38106
1.40841
1.43899
1.47285
1.5099
1.5499
1.59244
1.637
1.68303
1.73016
1.16774
1.16977
1.17305
1.17763
1.18357
1.19092
1.19975
1.21015
1.22222
1.2361
1.25195
1.26996
1.29032
1.31325
1.33894
1.36746
1.39879
1.43284
1.46935
1.50792
1.54799
1.58895
1.63031
1.10532
1.10719
1.11021
1.11449
1.12005
1.12694
1.13522
1.14496
1.15625
1.16921
1.18397
1.20068
1.21949
1.24056
1.26398
1.28975
1.31782
1.34803
1.3801
1.41352
1.44761
1.48161
1.51477
1.041
1.04262
1.04535
1.04926
1.05436
1.06068
1.06828
1.0772
1.08751
1.0993
1.11267
1.12772
1.14456
1.16326
1.18383
1.20619
1.23023
1.25572
1.28225
1.30915
1.33551
1.36024
1.38211
0.974822
0.976144
0.978551
0.982048
0.986623
0.99229
0.99908
1.00702
1.01617
1.02657
1.03827
1.05134
1.06582
1.0817
1.09888
1.11721
1.13647
1.15632
1.17613
1.19497
1.21158
1.22426
1.23088
0.906812
0.907853
0.909949
0.913001
0.916992
0.921921
0.927795
0.93463
0.942447
0.95126
0.961075
0.971892
0.983682
0.996335
1.00965
1.02338
1.03718
1.05049
1.06241
1.07166
1.07635
1.07377
1.06017
0.837096
0.837906
0.839699
0.842283
0.84564
0.849758
0.85463
0.860251
0.866607
0.873677
0.881417
0.889762
0.8986
0.907718
0.916804
0.925478
0.933226
0.939245
0.942312
0.940586
0.931279
0.910134
0.870476
0.765887
0.7665
0.767988
0.770079
0.772764
0.776022
0.779827
0.784151
0.788951
0.794164
0.799698
0.805423
0.811131
0.816505
0.821109
0.824423
0.825748
0.824015
0.817576
0.803914
0.779114
0.73664
0.66511
0.693399
0.693848
0.695019
0.696599
0.698583
0.700943
0.70364
0.706617
0.709804
0.713099
0.716359
0.719385
0.721881
0.72342
0.723451
0.721309
0.716115
0.706516
0.690411
0.664621
0.623995
0.5593
0.452945
0.619864
0.620181
0.62102
0.622073
0.623337
0.624779
0.626345
0.627959
0.62952
0.630884
0.631863
0.632194
0.631496
0.629247
0.624789
0.617333
0.605823
0.588639
0.563308
0.526136
0.471069
0.386931
0.251543
0.5456
0.545763
0.546238
0.546748
0.547284
0.547804
0.548245
0.54851
0.548466
0.547939
0.546697
0.54442
0.540656
0.534805
0.52612
0.513713
0.496381
0.472282
0.438707
0.39177
0.325167
0.228287
0.0809481
0.470927
0.47086
0.470934
0.470883
0.470687
0.470302
0.469646
0.468604
0.467018
0.464686
0.461344
0.456623
0.450024
0.440885
0.428399
0.411606
0.389188
0.359158
0.318721
0.263948
0.189059
0.0862076
-0.0527897
0.396094
0.39569
0.395326
0.394705
0.393787
0.392523
0.390817
0.388538
0.385506
0.381496
0.376223
0.369293
0.360173
0.348174
0.332454
0.312002
0.285435
0.250711
0.204984
0.144348
0.0633863
-0.0432642
-0.17625
0.321258
0.320442
0.31961
0.318421
0.316806
0.314702
0.312006
0.308575
0.30422
0.2987
0.291712
0.282857
0.2716
0.257252
0.238963
0.215705
0.186091
0.148107
0.098926
0.0345374
-0.0503264
-0.161019
-0.299081
0.246501
0.245274
0.243985
0.242246
0.239966
0.237077
0.233467
0.228991
0.223455
0.21661
0.208157
0.197699
0.184728
0.168589
0.148456
0.123324
0.0918815
0.052239
0.00164797
-0.0638102
-0.149418
-0.261272
-0.405607
0.171871
0.170309
0.1686
0.166352
0.163461
0.159855
0.155422
0.150016
0.143447
0.135476
0.125814
0.114088
0.0998329
0.082458
0.0612104
0.0351559
0.00312018
-0.036523
-0.0862757
-0.149736
-0.231659
-0.338422
-0.478981
0.0973754
0.0956068
0.0935456
0.0908368
0.0873915
0.0831418
0.0779781
0.0717621
0.0643112
0.0554076
0.0447894
0.0321169
0.0169803
-0.00111442
-0.0228059
-0.0488985
-0.0803638
-0.118478
-0.165207
-0.223502
-0.297165
-0.391278
-0.513966
0.0231688
0.0213233
0.0189773
0.015859
0.0119164
0.00709472
0.00128992
-0.0056246
-0.0138129
-0.0234703
-0.0348233
-0.0481614
-0.0638226
-0.0821988
-0.103779
-0.129177
-0.159099
-0.194393
-0.236368
-0.287011
-0.348748
-0.424572
-0.518755
-0.0504924
-0.0523261
-0.0549087
-0.0583993
-0.0627847
-0.0681102
-0.0744701
-0.0819765
-0.0907768
-0.101039
-0.112945
-0.126725
-0.142637
-0.160962
-0.182025
-0.206202
-0.233894
-0.26551
-0.301648
-0.343231
-0.391216
-0.446529
-0.510191
-0.12359
-0.1254
-0.128224
-0.132071
-0.136854
-0.142625
-0.149473
-0.157496
-0.166818