/*--------------------------------*- C++ -*----------------------------------*\
| =========                 |                                                 |
| \\      /  F ield         | OpenFOAM: The Open Source CFD Toolbox           |
|  \\    /   O peration     | Version:  v1912                                 |
|   \\  /    A nd           | Website:  www.openfoam.com                      |
|    \\/     M anipulation  |                                                 |
\*---------------------------------------------------------------------------*/
FoamFile
{
    version     2.0;
    format      ascii;
    class       surfaceScalarField;
    location    "0.4";
    object      phi;
}
// * * * * * * * * * * * * * * * * * * * * * * * * * * * * * * * * * * * * * //

dimensions      [0 3 -1 0 0 0 0];
oriented        oriented;


internalField   nonuniform List<scalar> 
17936
(
-1.09353e-06
2.26596e-06
-1.17243e-06
1.15924e-06
-1.0584e-07
-1.0534e-06
-1.61285e-06
3.61352e-06
-2.00067e-06
-5.55897e-06
7.25351e-06
-1.69455e-06
-8.62758e-06
9.69369e-06
-1.06611e-06
-1.05083e-05
1.11436e-05
-6.3535e-07
-1.16694e-05
1.2142e-05
-4.72618e-07
-1.26009e-05
1.30686e-05
-4.67771e-07
-1.35541e-05
1.40561e-05
-5.0194e-07
-1.45667e-05
1.50747e-05
-5.07991e-07
-1.55674e-05
1.6032e-05
-4.6464e-07
-1.64567e-05
1.68302e-05
-3.73457e-07
-1.7142e-05
1.73819e-05
-2.39901e-07
-1.75381e-05
1.75878e-05
-4.96572e-08
-1.74874e-05
1.71808e-05
3.06553e-07
-1.66191e-05
1.57387e-05
8.80356e-07
-1.44374e-05
1.25581e-05
1.87935e-06
-9.91863e-06
6.44391e-06
3.47472e-06
-2.35521e-06
-1.63167e-06
3.98688e-06
4.46341e-06
-6.04611e-06
1.5827e-06
3.69495e-06
2.04782e-06
-5.74278e-06
8.21995e-07
-1.14603e-05
1.06383e-05
1.56167e-05
-8.93499e-06
-6.68168e-06
-3.41098e-06
4.52842e-06
-1.11745e-06
1.11971e-06
-9.82524e-09
2.1375e-06
-3.24738e-06
-1.7441e-06
3.7497e-06
4.01807e-06
-6.02368e-06
-5.67674e-06
7.34518e-06
3.40173e-06
-5.07017e-06
-8.69897e-06
9.7603e-06
2.15683e-06
-3.21816e-06
-1.05895e-05
1.12568e-05
1.30785e-06
-1.97519e-06
-1.18265e-05
1.23488e-05
9.8314e-07
-1.50548e-06
-1.28582e-05
1.33741e-05
9.67144e-07
-1.48309e-06
-1.3904e-05
1.44465e-05
1.03068e-06
-1.57315e-06
-1.49943e-05
1.5537e-05
1.04192e-06
-1.5846e-06
-1.60629e-05
1.65604e-05
9.57368e-07
-1.45487e-06
-1.70186e-05
1.74272e-05
7.79153e-07
-1.18771e-06
-1.77767e-05
1.80584e-05
5.18148e-07
-7.999e-07
-1.82642e-05
1.83823e-05
1.77385e-07
-2.95488e-07
-1.84112e-05
1.83371e-05
-2.76116e-07
3.50233e-07
-1.81644e-05
1.78978e-05
-9.73517e-07
1.24009e-06
-1.756e-05
1.72038e-05
-2.33108e-06
2.68733e-06
-1.68945e-05
1.65684e-05
-5.26622e-06
5.5923e-06
-1.5812e-05
1.38049e-05
-8.70398e-06
1.07111e-05
-1.00013e-05
5.02744e-06
-5.47822e-06
1.04521e-05
6.0406e-07
-6.21947e-06
5.32114e-06
2.9427e-07
1.08027e-05
-1.45026e-05
-1.77534e-05
2.14533e-05
1.40294e-05
-8.7711e-06
1.39917e-05
-1.92501e-05
-5.62299e-06
6.69232e-06
-1.06933e-06
1.03876e-06
1.16434e-07
4.37542e-06
-5.53061e-06
-1.90808e-06
3.8711e-06
8.01307e-06
-9.97608e-06
-5.69938e-06
7.24765e-06
6.68523e-06
-8.23351e-06
-8.49146e-06
9.47405e-06
4.24262e-06
-5.22522e-06
-1.02642e-05
1.09304e-05
2.64005e-06
-3.30624e-06
-1.15288e-05
1.20995e-05
2.04816e-06
-2.61883e-06
-1.26669e-05
1.32424e-05
2.02522e-06
-2.60081e-06
-1.38279e-05
1.44187e-05
2.13721e-06
-2.72793e-06
-1.50061e-05
1.55799e-05
2.14139e-06
-2.71526e-06
-1.61298e-05
1.66455e-05
1.96061e-06
-2.47632e-06
-1.71179e-05
1.75383e-05
1.6015e-06
-2.02194e-06
-1.78988e-05
1.81917e-05
1.08642e-06
-1.37935e-06
-1.84098e-05
1.85458e-05
4.22957e-07
-5.58891e-07
-1.85915e-05
1.85403e-05
-4.17274e-07
4.6846e-07
-1.83846e-05
1.81189e-05
-1.53776e-06
1.80346e-06
-1.77412e-05
1.72591e-05
-3.19232e-06
3.67441e-06
-1.6706e-05
1.61845e-05
-5.91588e-06
6.43742e-06
-1.59359e-05
1.61639e-05
-1.07661e-05
1.05381e-05
-1.63515e-05
1.4985e-05
-1.38977e-05
1.52642e-05
-1.02889e-05
3.16056e-06
-7.73103e-06
1.48593e-05
9.21098e-07
-1.05788e-06
-2.3337e-05
2.34738e-05
1.4362e-06
-2.35883e-06
2.16854e-05
-2.07627e-05
-7.73125e-06
8.73403e-06
-1.00278e-06
9.16748e-07
2.94662e-07
6.71507e-06
-7.92648e-06
-2.08232e-06
3.95784e-06
1.19011e-05
-1.37766e-05
-5.64002e-06
7.0289e-06
9.70506e-06
-1.10939e-05
-8.13975e-06
9.03883e-06
6.1648e-06
-7.06387e-06
-9.8006e-06
1.04869e-05
3.97923e-06
-4.66554e-06
-1.11409e-05
1.17881e-05
3.2247e-06
-3.8719e-06
-1.24399e-05
1.30978e-05
3.21562e-06
-3.87345e-06
-1.37569e-05
1.44094e-05
3.34874e-06
-4.00129e-06
-1.50462e-05
1.56583e-05
3.30793e-06
-3.91995e-06
-1.62372e-05
1.67754e-05
3.00306e-06
-3.54129e-06
-1.72662e-05
1.7703e-05
2.45013e-06
-2.8869e-06
-1.80795e-05
1.83894e-05
1.68019e-06
-1.99015e-06
-1.86267e-05
1.87854e-05
7.05393e-07
-8.64039e-07
-1.88594e-05
1.8844e-05
-5.02502e-07
5.17988e-07
-1.87351e-05
1.85321e-05
-2.03713e-06
2.24014e-06
-1.8239e-05
1.78675e-05
-4.09647e-06
4.46803e-06
-1.74385e-05
1.69789e-05
-6.96215e-06
7.42179e-06
-1.65126e-05
1.6115e-05
-1.06901e-05
1.10878e-05
-1.59904e-05
1.60796e-05
-1.53943e-05
1.53051e-05
-1.5636e-05
1.35279e-05
-1.97703e-05
2.18784e-05
-1.1823e-05
1.14736e-05
-2.35047e-05
2.38542e-05
-8.63711e-06
4.11823e-06
1.77891e-05
-1.32702e-05
-9.69464e-06
1.06065e-05
-9.11851e-07
7.62707e-07
4.84955e-07
9.15966e-06
-1.04073e-05
-2.22547e-06
3.97303e-06
1.55924e-05
-1.73399e-05
-5.48325e-06
6.70517e-06
1.23984e-05
-1.36203e-05
-7.69241e-06
8.52927e-06
7.92798e-06
-8.76485e-06
-9.2897e-06
1.00234e-05
5.37219e-06
-6.10586e-06
-1.07567e-05
1.14987e-05
4.56507e-06
-5.30704e-06
-1.22471e-05
1.29941e-05
4.57603e-06
-5.32297e-06
-1.37295e-05
1.44438e-05
4.68551e-06
-5.39981e-06
-1.51287e-05
1.57774e-05
4.55092e-06
-5.19967e-06
-1.63848e-05
1.69461e-05
4.09111e-06
-4.65244e-06
-1.74572e-05
1.79135e-05
3.33303e-06
-3.78934e-06
-1.83102e-05
1.8642e-05
2.31043e-06
-2.64226e-06
-1.89037e-05
1.90903e-05
1.03607e-06
-1.22265e-06
-1.91971e-05
1.92205e-05
-5.14209e-07
4.90755e-07
-1.91589e-05
1.90135e-05
-2.41356e-06
2.55895e-06
-1.87899e-05
1.84991e-05
-4.79672e-06
5.08755e-06
-1.81588e-05
1.77924e-05
-7.82763e-06
8.19404e-06
-1.74241e-05
1.70526e-05
-1.15082e-05
1.18797e-05
-1.66563e-05
1.63017e-05
-1.54572e-05
1.58118e-05
-1.64019e-05
1.70754e-05
-2.2009e-05
2.13354e-05
-1.79222e-05
1.76948e-05
-2.43521e-05
2.45794e-05
-1.45386e-05
8.02924e-06
7.62788e-06
-1.11847e-06
-1.14615e-05
1.22501e-05
-7.88547e-07
5.80808e-07
6.79089e-07
1.16626e-05
-1.29225e-05
-2.34403e-06
3.93585e-06
1.90126e-05
-2.06045e-05
-5.26387e-06
6.33328e-06
1.47641e-05
-1.58335e-05
-7.22799e-06
8.0384e-06
9.58377e-06
-1.03942e-05
-8.82914e-06
9.63318e-06
6.87248e-06
-7.67652e-06
-1.04587e-05
1.12989e-05
6.09873e-06
-6.93893e-06
-1.21401e-05
1.29676e-05
6.11212e-06
-6.93955e-06
-1.37687e-05
1.45343e-05
6.14157e-06
-6.90723e-06
-1.52587e-05
1.59384e-05
5.86474e-06
-6.54445e-06
-1.65715e-05
1.71561e-05
5.22532e-06
-5.80998e-06
-1.76902e-05
1.81704e-05
4.2569e-06
-4.73707e-06
-1.85925e-05
1.89517e-05
2.98698e-06
-3.34622e-06
-1.92431e-05
1.94621e-05
1.42486e-06
-1.64382e-06
-1.96046e-05
1.96679e-05
-4.47397e-07
3.84074e-07
-1.96514e-05
1.95573e-05
-2.6779e-06
2.77207e-06
-1.93912e-05
1.91634e-05
-5.3449e-06
5.57273e-06
-1.88883e-05
1.85838e-05
-8.52747e-06
8.83203e-06
-1.82681e-05
1.79571e-05
-1.22126e-05
1.25236e-05
-1.76569e-05
1.73283e-05
-1.61969e-05
1.65256e-05
-1.7036e-05
1.72495e-05
-2.07219e-05
2.05084e-05
-1.82403e-05
1.85461e-05
-2.44141e-05
2.41083e-05
-1.60248e-05
9.46735e-06
-5.60183e-06
1.21593e-05
-1.29613e-05
1.35829e-05
-6.2162e-07
3.53424e-07
9.20121e-07
1.41894e-05
-1.54629e-05
-2.50567e-06
3.92746e-06
2.21108e-05
-2.35326e-05
-5.06714e-06
5.99732e-06
1.68307e-05
-1.77609e-05
-6.82796e-06
7.64273e-06
1.12041e-05
-1.20189e-05
-8.48642e-06
9.37073e-06
8.52064e-06
-9.40494e-06
-1.02859e-05
1.1212e-05
7.82448e-06
-8.75059e-06
-1.21278e-05
1.30157e-05
7.80009e-06
-8.68802e-06
-1.38638e-05
1.46654e-05
7.69282e-06
-8.49443e-06
-1.54182e-05
1.61224e-05
7.23718e-06
-7.94138e-06
-1.6779e-05
1.73885e-05
6.40693e-06
-7.01637e-06
-1.79498e-05
1.84599e-05
5.23165e-06
-5.74182e-06
-1.89147e-05
1.93092e-05
3.72215e-06
-4.1166e-06
-1.9638e-05
1.98963e-05
1.88132e-06
-2.13959e-06
-2.00797e-05
2.01854e-05
-3.00391e-07
1.94754e-07
-2.02128e-05
2.01643e-05
-2.84305e-06
2.89154e-06
-2.00457e-05
1.98664e-05
-5.77472e-06
5.95408e-06
-1.96392e-05
1.93799e-05
-9.11189e-06
9.3712e-06
-1.91045e-05
1.88258e-05
-1.28179e-05
1.30965e-05
-1.85535e-05
1.82971e-05
-1.68024e-05
1.70588e-05
-1.80115e-05
1.76829e-05
-2.06514e-05
2.098e-05
-1.75542e-05
1.72508e-05
-2.40058e-05
2.43092e-05
-1.52063e-05
9.65156e-06
-1.8269e-05
2.38237e-05
-1.40987e-05
1.44879e-05
-3.89267e-07
7.26558e-08
1.10214e-06
1.67199e-05
-1.78946e-05
-2.52832e-06
3.83948e-06
2.48841e-05
-2.61952e-05
-4.89765e-06
5.76843e-06
1.86423e-05
-1.95131e-05
-6.58021e-06
7.42187e-06
1.28428e-05
-1.36845e-05
-8.32571e-06
9.28548e-06
1.03275e-05
-1.12873e-05
-1.02765e-05
1.12698e-05
9.71214e-06
-1.07055e-05
-1.22405e-05
1.31712e-05
9.59863e-06
-1.05293e-05
-1.40524e-05
1.48808e-05
9.30948e-06
-1.01379e-05
-1.56572e-05
1.63843e-05
8.65621e-06
-9.38335e-06
-1.70651e-05
1.77008e-05
7.63803e-06
-8.2737e-06
-1.82901e-05
1.88291e-05
6.26667e-06
-6.80566e-06
-1.93128e-05
1.97361e-05
4.52791e-06
-4.9512e-06
-2.00944e-05
2.03842e-05
2.41786e-06
-2.70772e-06
-2.0603e-05
2.07486e-05
-6.59143e-08
-7.96496e-08
-2.08197e-05
2.08165e-05
-2.9167e-06
2.91995e-06
-2.07423e-05
2.06047e-05
-6.11252e-06
6.25016e-06
-2.04148e-05
2.01877e-05
-9.61352e-06
9.84063e-06
-1.99403e-05
1.96871e-05
-1.33614e-05
1.36145e-05
-1.9434e-05
1.91808e-05
-1.73131e-05
1.75664e-05
-1.89199e-05
1.85541e-05
-2.13599e-05
2.17258e-05
-1.7968e-05
1.70436e-05
-2.50105e-05
2.59349e-05
-1.50888e-05
1.08251e-05
-2.88892e-05
3.31529e-05
1.42049e-06
-2.36468e-06
9.44186e-07
-2.81165e-06
3.88851e-06
-1.07686e-06
-4.8722e-06
5.59119e-06
-7.1899e-07
-5.95294e-06
5.89402e-06
5.89191e-08
-5.47379e-06
4.77855e-06
6.95241e-07
-3.90606e-06
2.91879e-06
9.87271e-07
-1.87866e-06
8.2847e-07
1.05019e-06
2.0227e-07
-1.18428e-06
9.82011e-07
2.09334e-06
-2.9096e-06
8.16259e-07
3.62374e-06
-4.23612e-06
6.12379e-07
4.74914e-06
-5.16485e-06
4.15713e-07
5.48303e-06
-5.70559e-06
2.22553e-07
5.83413e-06
-5.87273e-06
3.85994e-08
5.82714e-06
-5.70117e-06
-1.25969e-07
5.49726e-06
-5.21781e-06
-2.7945e-07
4.86494e-06
-4.44197e-06
-4.22965e-07
3.9529e-06
-3.40265e-06
-5.50251e-07
2.79873e-06
-2.14648e-06
-6.52241e-07
1.43431e-06
-6.37792e-07
-7.96521e-07
3.37668e-06
-4.47392e-06
1.09724e-06
-2.26316e-06
3.40531e-06
2.14896e-06
-3.29111e-06
-4.61356e-06
5.54742e-06
1.55046e-06
-2.48432e-06
-6.02937e-06
6.00589e-06
-7.34752e-08
9.69527e-08
-5.55005e-06
4.77794e-06
-1.43974e-06
2.21185e-06
-3.82745e-06
2.791e-06
-2.03319e-06
3.06964e-06
-1.74319e-06
7.25376e-07
-2.09201e-06
3.10982e-06
2.34839e-07
-1.12104e-06
-1.86682e-06
2.75303e-06
1.9245e-06
-2.63916e-06
-1.51162e-06
2.22627e-06
3.26024e-06
-3.7842e-06
-1.11847e-06
1.64243e-06
4.21075e-06
-4.54258e-06
-7.31395e-07
1.06322e-06
4.78548e-06
-4.94391e-06
-3.68831e-07
5.27262e-07
5.02458e-06
-5.03361e-06
-3.90771e-08
4.80995e-08
4.97364e-06
-4.84806e-06
2.63981e-07
-3.89561e-07
4.65945e-06
-4.4118e-06
5.48344e-07
-7.95993e-07
4.10562e-06
-3.74393e-06
8.13236e-07
-1.17492e-06
3.32971e-06
-2.86629e-06
1.04865e-06
-1.51208e-06
2.36009e-06
-1.81457e-06
1.2392e-06
-1.78472e-06
1.21431e-06
-5.39856e-07
1.5192e-06
-2.19365e-06
5.57348e-06
-6.62376e-06
1.05028e-06
-2.47437e-06
3.57471e-06
4.41252e-06
-5.51285e-06
-4.96686e-06
6.10726e-06
3.50248e-06
-4.64287e-06
-6.73801e-06
6.73749e-06
-8.35508e-08
8.40703e-08
-6.212e-06
5.35264e-06
-3.00813e-06
3.86749e-06
-4.30529e-06
3.18024e-06
-4.14223e-06
5.26727e-06
-2.04831e-06
9.5247e-07
-4.17168e-06
5.26752e-06
7.85749e-08
-1.02612e-06
-3.68282e-06
4.63036e-06
1.87819e-06
-2.62702e-06
-2.96932e-06
3.71814e-06
3.27015e-06
-3.80824e-06
-2.18072e-06
2.71881e-06
4.24461e-06
-4.58475e-06
-1.40502e-06
1.74515e-06
4.83428e-06
-4.99939e-06
-6.93195e-07
8.58306e-07
5.0859e-06
-5.09919e-06
-6.15077e-08
7.48003e-08
5.04326e-06
-4.92136e-06
5.11573e-07
-6.33468e-07
4.73611e-06
-4.48968e-06
1.0416e-06
-1.28803e-06
4.18379e-06
-3.82069e-06
1.53568e-06
-1.89878e-06
3.40263e-06
-2.93337e-06
1.97635e-06
-2.4456e-06
2.4187e-06
-1.86148e-06
2.33322e-06
-2.89044e-06
1.24684e-06
-5.56199e-07
2.87251e-06
-3.56316e-06
7.59417e-06
-8.47955e-06
8.85377e-07
-2.47299e-06
3.61761e-06
6.62622e-06
-7.77084e-06
-5.27182e-06
6.81305e-06
5.95389e-06
-7.49511e-06
-7.6797e-06
7.59679e-06
-1.19092e-07
2.02001e-07
-6.82098e-06
5.70694e-06
-4.84444e-06
5.95847e-06
-4.46566e-06
3.20574e-06
-6.45382e-06
7.71373e-06
-1.98297e-06
8.2841e-07
-6.39026e-06
7.54482e-06
2.41454e-07
-1.21284e-06
-5.5884e-06
6.55978e-06
2.07844e-06
-2.83353e-06
-4.46972e-06
5.22481e-06
3.47703e-06
-4.01097e-06
-3.25477e-06
3.7887e-06
4.43995e-06
-4.77062e-06
-2.08109e-06
2.41176e-06
5.01e-06
-5.1653e-06
-1.01934e-06
1.17464e-06
5.2429e-06
-5.24843e-06
-8.47895e-08
9.03204e-08
5.1862e-06
-5.0593e-06
7.57265e-07
-8.84167e-07
4.86981e-06
-4.61931e-06
1.53627e-06
-1.78676e-06
4.30913e-06
-3.94045e-06
2.26449e-06
-2.63317e-06
3.51474e-06
-3.03509e-06
2.91978e-06
-3.39943e-06
2.5066e-06
-1.9313e-06
3.45631e-06
-4.03161e-06
1.29345e-06
-5.76421e-07
4.26622e-06
-4.98324e-06
9.27971e-06
-9.99631e-06
7.16601e-07
-2.67956e-06
3.62028e-06
8.85231e-06
-9.79303e-06
-5.11416e-06
7.54459e-06
9.41864e-06
-1.18491e-05
-9.05775e-06
8.87435e-06
-3.39454e-07
5.22855e-07
-7.68361e-06
6.18076e-06
-7.24484e-06
8.74769e-06
-4.6642e-06
3.2246e-06
-9.05853e-06
1.04981e-05
-1.88599e-06
6.54873e-07
-8.73706e-06
9.96817e-06
4.65523e-07
-1.46949e-06
-7.54719e-06
8.55115e-06
2.35434e-06
-3.11804e-06
-5.98407e-06
6.74776e-06
3.76161e-06
-4.28859e-06
-4.31966e-06
4.84664e-06
4.70557e-06
-5.02123e-06
-2.73569e-06
3.05135e-06
5.24483e-06
-5.38496e-06
-1.32287e-06
1.46299e-06
5.44916e-06
-5.44325e-06
-9.04077e-08
8.44937e-08
5.37159e-06
-5.23727e-06
1.01464e-06
-1.14896e-06
5.04184e-06
-4.7862e-06
2.0397e-06
-2.29534e-06
4.47078e-06
-4.09543e-06
3.00509e-06
-3.38044e-06
3.66039e-06
-3.16764e-06
3.88527e-06
-4.37801e-06
2.621e-06
-2.02284e-06
4.61802e-06
-5.21618e-06
1.35481e-06
-6.02977e-07
5.71628e-06
-6.46812e-06
1.06247e-05
-1.10552e-05
4.30567e-07
-3.51528e-06
6.81942e-06
1.12047e-05
-1.45088e-05
-9.25658e-06
1.06808e-05
1.42778e-05
-1.57021e-05
-1.12739e-05
1.05667e-05
-7.76689e-07
1.48385e-06
-8.74452e-06
6.69165e-06
-1.05065e-05
1.25593e-05
-4.82392e-06
3.17743e-06
-1.20409e-05
1.36874e-05
-1.71232e-06
3.99393e-07
-1.12404e-05
1.25533e-05
7.742e-07
-1.81256e-06
-9.57231e-06
1.06107e-05
2.71747e-06
-3.48917e-06
-7.51565e-06
8.28735e-06
4.13022e-06
-4.64568e-06
-5.3685e-06
5.88395e-06
5.04444e-06
-5.33831e-06
-3.35702e-06
3.65089e-06
5.53959e-06
-5.65913e-06
-1.59358e-06
1.71312e-06
5.7057e-06
-5.6854e-06
-7.18613e-08
5.15592e-08
5.60268e-06
-5.46017e-06
1.2876e-06
-1.43011e-06
5.25857e-06
-4.99797e-06
2.55353e-06
-2.81413e-06
4.67717e-06
-4.29464e-06
3.75937e-06
-4.1419e-06
3.84889e-06
-3.34079e-06
4.87866e-06
-5.38676e-06
2.77265e-06
-2.1439e-06
5.82896e-06
-6.45771e-06
1.43535e-06
-6.36907e-07
7.24171e-06
-8.04016e-06
1.20538e-05
-1.93956e-05
7.34184e-06
-9.30147e-06
1.77445e-05
2.06222e-05
-2.90653e-05
-2.21228e-05
2.20601e-05
1.62171e-05
-1.61544e-05
-1.78612e-05
1.31753e-05
-3.73285e-06
8.41869e-06
-9.77154e-06
7.06742e-06
-1.49222e-05
1.76264e-05
-4.84233e-06
3.00492e-06
-1.54351e-05
1.72725e-05
-1.42798e-06
4.15725e-08
-1.39054e-05
1.52918e-05
1.18141e-06
-2.25236e-06
-1.16657e-05
1.27366e-05
3.17671e-06
-3.955e-06
-9.06241e-06
9.8407e-06
4.59004e-06
-5.08789e-06
-6.39133e-06
6.88918e-06
5.46031e-06
-5.7235e-06
-3.93067e-06
4.19386e-06
5.89429e-06
-5.9865e-06
-1.82001e-06
1.91222e-06
6.01066e-06
-5.97285e-06
-2.29513e-08
-1.48524e-08
5.87736e-06
-5.72584e-06
1.57699e-06
-1.72851e-06
5.51806e-06
-5.25269e-06
3.07704e-06
-3.34241e-06
4.92704e-06
-4.53769e-06
4.52775e-06
-4.91711e-06
4.0819e-06
-3.55682e-06
5.90336e-06
-6.42844e-06
2.96339e-06
-2.29806e-06
7.10398e-06
-7.76931e-06
1.53841e-06
-6.81094e-07
8.86655e-06
-9.72386e-06
-7.66263e-05
4.24494e-05
3.41769e-05
-3.57336e-05
3.83159e-05
3.67275e-05
-3.93098e-05
-3.60863e-05
3.05444e-05
1.39956e-05
-8.45366e-06
-2.32623e-05
1.60547e-05
-1.49636e-05
2.21712e-05
-1.05257e-05
7.04015e-06
-2.07826e-05
2.42681e-05
-4.58082e-06
2.64447e-06
-1.91752e-05
2.11115e-05
-1.00549e-06
-4.3007e-07
-1.67069e-05
1.81425e-05
1.68987e-06
-2.7893e-06
-1.38222e-05
1.49216e-05
3.73204e-06
-4.51609e-06
-1.0622e-05
1.14061e-05
5.14131e-06
-5.61418e-06
-7.37585e-06
7.84872e-06
5.94924e-06
-6.16981e-06
-4.43753e-06
4.6581e-06
6.29979e-06
-6.35712e-06
-1.98796e-06
2.04529e-06
6.35317e-06
-6.2948e-06
6.27683e-08
-1.21137e-07
6.18519e-06
-6.02459e-06
1.88496e-06
-2.04555e-06
5.81167e-06
-5.5436e-06
3.60978e-06
-3.87784e-06
5.216e-06
-4.82379e-06
5.30844e-06
-5.70065e-06
4.35986e-06
-3.81914e-06
6.96155e-06
-7.50228e-06
3.1988e-06
-2.49057e-06
8.45514e-06
-9.16337e-06
1.66836e-06
-7.37849e-07
1.06155e-05
-1.1546e-05
-1.47924e-05
1.39143e-05
8.78119e-07
-4.81332e-07
2.13828e-06
1.89279e-05
-2.05848e-05
-4.42527e-06
7.10957e-06
2.74939e-05
-3.01782e-05
-9.60923e-06
1.17191e-05
2.04196e-05
-2.25295e-05
-1.36563e-05
1.56448e-05
1.45582e-05
-1.65467e-05
-1.77616e-05
1.99781e-05
1.22842e-05
-1.45008e-05
-2.22274e-05
2.44447e-05
1.17262e-05
-1.39435e-05
-2.65842e-05
2.86212e-05
1.1477e-05
-1.3514e-05
-3.05476e-05
3.23661e-05
1.09801e-05
-1.27987e-05
-3.40845e-05
3.57136e-05
1.01266e-05
-1.17558e-05
-3.72662e-05
3.87491e-05
8.93004e-06
-1.0413e-05
-4.01579e-05
4.14765e-05
7.36649e-06
-8.68511e-06
-4.26836e-05
4.37556e-05
5.39033e-06
-6.46228e-06
-4.46687e-05
4.54024e-05
3.00264e-06
-3.73626e-06
-4.59412e-05
4.62821e-05
2.25492e-07
-5.66401e-07
-4.64408e-05
4.64365e-05
-2.91449e-06
2.91878e-06
-4.629e-05
4.60175e-05
-6.37322e-06
6.64569e-06
-4.56375e-05
4.51822e-05
-1.00539e-05
1.05092e-05
-4.46939e-05
4.42069e-05
-1.38554e-05
1.43424e-05
-4.37351e-05
4.32689e-05
-1.78111e-05
1.82773e-05
-4.27915e-05
4.2256e-05
-2.20555e-05
2.2591e-05
-4.15226e-05
4.04211e-05
-2.68775e-05
2.7979e-05
-3.92157e-05
3.94819e-05
-3.71356e-05
3.68695e-05
-1.11519e-05
5.94346e-06
5.20845e-06
-4.48397e-06
6.08694e-06
2.16349e-05
-2.32378e-05
-7.38614e-06
8.53103e-06
3.24848e-05
-3.36297e-05
-9.92909e-06
1.16004e-05
2.47705e-05
-2.64418e-05
-1.34389e-05
1.54367e-05
1.86472e-05
-2.0645e-05
-1.75635e-05
1.975e-05
1.67639e-05
-1.89504e-05
-2.19275e-05
2.40473e-05
1.61437e-05
-1.82636e-05
-2.60869e-05
2.80374e-05
1.55202e-05
-1.74708e-05
-2.9902e-05
3.16819e-05
1.46078e-05
-1.63877e-05
-3.33859e-05
3.50389e-05
1.34082e-05
-1.50612e-05
-3.6655e-05
3.82121e-05
1.19866e-05
-1.35438e-05
-3.96826e-05
4.10592e-05
1.01735e-05
-1.15501e-05
-4.23602e-05
4.36149e-05
7.78529e-06
-9.03999e-06
-4.48485e-05
4.60727e-05
4.78752e-06
-6.01169e-06
-4.7275e-05
4.84169e-05
1.19576e-06
-2.3377e-06
-4.94767e-05
5.02436e-05
-2.83795e-06
2.0711e-06
-5.06753e-05
5.07012e-05
-6.97891e-06
6.95308e-06
-5.03439e-05
4.97245e-05
-1.10535e-05
1.16729e-05
-4.90247e-05
4.83809e-05
-1.48449e-05
1.54886e-05
-4.78461e-05
4.7442e-05
-1.86566e-05
1.90607e-05
-4.71934e-05
4.71426e-05
-2.28262e-05
2.2877e-05
-4.74057e-05
4.81637e-05
-2.76325e-05
2.68744e-05
-4.97147e-05
5.23178e-05
-3.27993e-05
3.01962e-05
1.94713e-06
-1.28547e-05
1.09075e-05
-1.78561e-05
2.62773e-05
2.76223e-05
-3.60436e-05
-2.72549e-05
2.16035e-05
3.22271e-05
-2.65757e-05
-1.73883e-05
1.63377e-05
2.66586e-05
-2.5608e-05
-1.71168e-05
1.86431e-05
2.24087e-05
-2.3935e-05
-2.05758e-05
2.27431e-05
2.11151e-05
-2.32824e-05
-2.50057e-05
2.72916e-05
2.0457e-05
-2.27428e-05
-2.95597e-05
3.18275e-05
1.95743e-05
-2.18421e-05
-3.40892e-05
3.63519e-05
1.839e-05
-2.06527e-05
-3.85673e-05
4.06271e-05
1.69626e-05
-1.90224e-05
-4.2478e-05
4.41576e-05
1.50451e-05
-1.67247e-05
-4.56323e-05
4.68467e-05
1.2393e-05
-1.36074e-05
-4.77561e-05
4.83165e-05
9.50662e-06
-1.0067e-05
-4.84997e-05
4.8302e-05
6.47483e-06
-6.27715e-06
-4.77793e-05
4.7098e-05
3.10965e-06
-2.42834e-06
-4.66179e-05
4.63652e-05
-9.33255e-07
1.18602e-06
-4.6628e-05
4.73226e-05
-5.92089e-06
5.22627e-06
-4.80269e-05
4.86535e-05
-1.15187e-05
1.08921e-05
-4.94359e-05
5.02785e-05
-1.57373e-05
1.48947e-05
-5.09844e-05
5.145e-05
-1.94446e-05
1.8979e-05
-5.16252e-05
5.15506e-05
-2.30671e-05
2.31418e-05
-5.13893e-05
5.1344e-05
-2.64428e-05
2.64881e-05
-5.15837e-05
5.19781e-05
-2.88845e-05
2.849e-05
2.65044e-05
-3.9118e-05
1.26135e-05
-2.86853e-05
2.20293e-05
4.59431e-05
-3.92871e-05
-1.35124e-05
9.151e-06
1.70137e-05
-1.26523e-05
-9.7931e-06
1.00073e-05
2.49223e-05
-2.51365e-05
-9.4918e-06
8.87354e-06
2.46829e-05
-2.40646e-05
-8.29733e-06
7.60311e-06
2.46072e-05
-2.3913e-05
-6.75233e-06
5.61422e-06
2.40598e-05
-2.29217e-05
-3.9872e-06
1.3792e-06
2.28457e-05
-2.02377e-05
3.01985e-06
-1.02275e-05
2.08244e-05
-1.36167e-05
2.15836e-05
-3.19075e-05
1.80166e-05
-7.69273e-06
3.07121e-05
-1.739e-05
2.04152e-05
-3.37372e-05
2.2131e-06
1.06e-05
1.89968e-05
-3.18099e-05
-2.06105e-05
2.85034e-05
1.4514e-05
-2.2407e-05
-3.52293e-05
4.16629e-05
9.31652e-06
-1.57502e-05
-4.95204e-05
6.09471e-05
3.37589e-06
-1.48027e-05
-6.91186e-05
7.24336e-05
-3.12962e-06
-1.85425e-07
-7.27608e-05
7.11943e-05
-8.64579e-06
1.02123e-05
-6.81163e-05
6.49088e-05
-1.3144e-05
1.63515e-05
-6.1699e-05
5.77049e-05
-1.36414e-05
1.76356e-05
-5.38868e-05
5.16233e-05
-1.69477e-05
1.92113e-05
-5.07866e-05
5.1051e-05
-2.19776e-05
2.17133e-05
-5.18475e-05
5.26292e-05
-2.63525e-05
2.55708e-05
-5.30977e-05
5.30705e-05
-2.87865e-05
2.88137e-05
3.01376e-05
-2.02362e-05
-9.90137e-06
1.21201e-05
-1.43503e-05
3.72498e-05
-3.50195e-05
5.52487e-06
-4.74485e-08
1.9157e-05
-2.46345e-05
-1.05201e-06
7.73511e-07
2.53235e-05
-2.5045e-05
-8.87955e-07
1.23123e-06
2.40988e-05
-2.44421e-05
-1.43488e-06
1.42389e-06
2.37645e-05
-2.37535e-05
-1.21548e-06
8.16497e-07
2.23012e-05
-2.19022e-05
-1.39749e-07
-7.33495e-07
1.87643e-05
-1.7891e-05
1.91207e-06
-4.32636e-06
8.76958e-06
-6.35529e-06
7.72298e-06
-7.99977e-06
1.31624e-06
-1.03946e-06
1.56015e-06
3.38559e-06
4.53669e-05
-5.03127e-05
-7.84575e-06
1.14049e-05
3.9996e-05
-4.35551e-05
-1.47069e-05
1.82133e-05
2.74505e-05
-3.09569e-05
-2.2191e-05
2.67789e-05
2.10515e-05
-2.56394e-05
-3.17348e-05
3.66219e-05
1.89772e-05
-2.38643e-05
-4.29156e-05
5.01577e-05
9.2806e-06
-1.65227e-05
-5.86797e-05
6.79864e-05
-6.48336e-06
-2.82333e-06
-7.69959e-05
7.97978e-05
-1.56759e-05
1.2874e-05
-7.97039e-05
7.67258e-05
-1.99804e-05
2.29586e-05
-7.23342e-05
7.01787e-05
-2.3555e-05
2.57105e-05
-6.66735e-05
6.31501e-05
-2.52121e-05
2.87356e-05
-5.93075e-05
5.62089e-05
-2.62997e-05
2.93983e-05
-5.40338e-05
5.2849e-05
-2.84463e-05
2.96311e-05
1.45132e-05
-9.5713e-06
-4.94194e-06
6.31423e-06
-5.97861e-06
3.652e-05
-3.68556e-05
4.47686e-06
-3.02999e-06
2.6906e-05
-2.83529e-05
1.83353e-06
-8.6579e-07
2.54634e-05
-2.64311e-05
-1.31252e-08
7.96537e-07
2.49813e-05
-2.57648e-05
-1.47147e-06
2.05042e-06
2.39664e-05
-2.45453e-05
-2.57512e-06
3.11293e-06
2.18001e-05
-2.23379e-05
-3.74659e-06
4.74203e-06
1.75485e-05
-1.8544e-05
-6.61653e-06
9.98817e-06
6.30303e-06
-9.67467e-06
-1.54644e-05
1.92873e-05
5.68327e-06
-9.50624e-06
-1.56912e-05
8.89939e-06
4.84745e-05
-4.16828e-05
-3.4167e-06
1.81447e-06
4.31619e-05
-4.15597e-05
-3.18802e-06
6.04472e-06
3.41279e-05
-3.69846e-05
-9.39672e-06
1.27164e-05
3.00515e-05
-3.33712e-05
-1.57515e-05
1.85558e-05
2.83528e-05
-3.11571e-05
-2.1907e-05
2.66447e-05
2.13603e-05
-2.60979e-05
-3.2488e-05
3.97059e-05
1.14335e-05
-1.86514e-05
-4.96559e-05
6.41601e-05
1.74707e-06
-1.62513e-05
-8.25982e-05
0.000102352
-1.67413e-05
-3.01223e-06
-0.000114761
0.000112748
-3.54628e-05
3.7476e-05
-0.000102015
8.46925e-05
-3.19288e-05
4.92514e-05
-7.079e-05
6.60148e-05
-3.14613e-05
3.62365e-05
-6.44852e-05
6.37575e-05
-3.22251e-05
3.29527e-05
4.98791e-06
-1.15515e-06
-3.83276e-06
5.40184e-06
-4.28692e-06
3.77603e-05
-3.88753e-05
3.07473e-06
-1.88295e-06
2.96942e-05
-3.0886e-05
7.75031e-07
3.01348e-07
2.75064e-05
-2.85827e-05
-1.30695e-06
2.26818e-06
2.66848e-05
-2.76461e-05
-3.19946e-06
4.15174e-06
2.53575e-05
-2.63098e-05
-5.18338e-06
6.39529e-06
2.33217e-05
-2.45336e-05
-7.92295e-06
9.87155e-06
2.03072e-05
-2.22558e-05
-1.24921e-05
1.70096e-05
1.46935e-05
-1.92111e-05
-2.39535e-05
2.88269e-05
1.37666e-05
-1.86399e-05
-2.77159e-05
2.3733e-05
3.47549e-05
-3.0772e-05
-2.01154e-05
1.77006e-05
3.97156e-05
-3.73008e-05
-1.67709e-05
1.71078e-05
3.89991e-05
-3.9336e-05
-1.81575e-05
1.94784e-05
3.55438e-05
-3.68647e-05
-2.0926e-05
2.26692e-05
3.32631e-05
-3.50064e-05
-2.50975e-05
2.87227e-05
3.01197e-05
-3.3745e-05
-3.4077e-05
4.16131e-05
2.6009e-05
-3.35451e-05
-5.10843e-05
6.12119e-05
2.76856e-05
-3.78132e-05
-7.32547e-05
8.74574e-05
2.16441e-05
-3.58468e-05
-0.000103012
0.000119526
-2.29477e-05
6.43384e-06
-0.000132287
0.000133649
-6.19339e-05
6.0572e-05
-0.000123742
0.000107273
-5.49195e-05
7.13888e-05
-9.18243e-05
7.71721e-05
-3.64274e-05
5.10796e-05
-1.7713e-06
3.55587e-06
-1.78457e-06
3.32156e-06
-2.45159e-06
3.98624e-05
-4.07324e-05
1.43721e-06
-4.49899e-07
3.19772e-05
-3.29645e-05
-5.37935e-07
1.54842e-06
2.96276e-05
-3.06381e-05
-2.54026e-06
3.53366e-06
2.86314e-05
-2.96248e-05
-4.55492e-06
5.64107e-06
2.73518e-05
-2.8438e-05
-6.83136e-06
8.1704e-06
2.58489e-05
-2.7188e-05
-9.72944e-06
1.155e-05
2.41734e-05
-2.5994e-05
-1.36557e-05
1.62894e-05
2.2658e-05
-2.52917e-05
-1.96982e-05
2.2882e-05
2.29691e-05
-2.61529e-05
-2.46891e-05
2.5265e-05
2.97048e-05
-3.02807e-05
-2.51246e-05
2.42968e-05
3.53638e-05
-3.45361e-05
-2.31119e-05
2.22143e-05
3.86127e-05
-3.77151e-05
-2.19404e-05
2.2283e-05
3.7645e-05
-3.79876e-05
-2.31317e-05
2.44275e-05
3.65678e-05
-3.78636e-05
-2.62129e-05
2.8621e-05
3.67342e-05
-3.91424e-05
-3.18233e-05
3.60147e-05
3.95972e-05
-4.37886e-05
-4.17803e-05
4.95914e-05
4.77679e-05
-5.55789e-05
-5.90331e-05
6.76127e-05
4.71986e-05
-5.57783e-05
-7.38221e-05
7.91506e-05
4.01737e-06
-9.34584e-06
-8.57695e-05
9.36339e-05
-5.2461e-05
4.45965e-05
-0.000100771
0.000103962
-7.7104e-05
7.39124e-05
-0.000103004
9.79032e-05
-6.45269e-05
6.96277e-05
-4.03896e-06
3.44269e-06
5.96269e-07
7.30702e-07
-3.10597e-07
4.14448e-05
-4.18649e-05
-3.4899e-07
1.10423e-06
3.38329e-05
-3.45882e-05
-1.90356e-06
2.77372e-06
3.15838e-05
-3.24539e-05
-3.68327e-06
4.62924e-06
3.06015e-05
-3.15475e-05
-5.62696e-06
6.69395e-06
2.9527e-05
-3.0594e-05
-7.84866e-06
9.10568e-06
2.84994e-05
-2.97565e-05
-1.0482e-05
1.19946e-05
2.76688e-05
-2.91813e-05
-1.36401e-05
1.53911e-05
2.73952e-05
-2.91463e-05
-1.71995e-05
1.89077e-05
2.84246e-05
-3.01328e-05
-2.0302e-05
2.13172e-05
3.13323e-05
-3.23476e-05
-2.19967e-05
2.23059e-05
3.45164e-05
-3.48256e-05
-2.22557e-05
2.20264e-05
3.71196e-05
-3.68904e-05
-2.18648e-05
2.19487e-05
3.8097e-05
-3.8181e-05
-2.2346e-05
2.30439e-05
3.88722e-05
-3.95701e-05
-2.40157e-05
2.52218e-05
4.10012e-05
-4.22073e-05
-2.65845e-05
2.79333e-05
4.645e-05
-4.77988e-05
-2.89301e-05
2.98991e-05
5.99474e-05
-6.09163e-05
-3.1887e-05
3.48157e-05
6.13288e-05
-6.42575e-05
-3.57527e-05
3.63468e-05
1.17114e-05
-1.23055e-05
-3.81423e-05
4.19122e-05
-3.9061e-05
3.52911e-05
-4.77286e-05
5.46445e-05
-6.66825e-05
5.97666e-05
-6.12423e-05
6.66486e-05
-6.69248e-05
6.15186e-05
-2.28867e-06
8.62164e-07
1.42651e-06
-1.31726e-06
1.56005e-06
4.21519e-05
-4.23947e-05
-1.86242e-06
2.3803e-06
3.52088e-05
-3.57267e-05
-3.04963e-06
3.80564e-06
3.32598e-05
-3.40158e-05
-4.62243e-06
5.49369e-06
3.24565e-05
-3.33278e-05
-6.42192e-06
7.41066e-06
3.1625e-05
-3.26138e-05
-8.4631e-06
9.58062e-06
3.09457e-05
-3.20632e-05
-1.07609e-05
1.19963e-05
3.05447e-05
-3.17801e-05
-1.32715e-05
1.45593e-05
3.06352e-05
-3.1923e-05
-1.58143e-05
1.69708e-05
3.15046e-05
-3.26612e-05
-1.79572e-05
1.8734e-05
3.32288e-05
-3.40056e-05
-1.93053e-05
1.96908e-05
3.52088e-05
-3.55942e-05
-1.99219e-05
2.0055e-05
3.69068e-05
-3.70399e-05
-2.01505e-05
2.02439e-05
3.82906e-05
-3.8384e-05
-2.03417e-05
2.04257e-05
3.99471e-05
-4.00311e-05
-2.0453e-05
2.03438e-05
4.27231e-05
-4.26139e-05
-1.99575e-05
1.90832e-05
4.79566e-05
-4.70822e-05
-1.72196e-05
1.34647e-05
5.9061e-05
-5.5306e-05
-8.38722e-06
6.71986e-06
6.52782e-05
-6.36108e-05
-9.45127e-06
1.0256e-05
1.20248e-05
-1.28295e-05
-1.21835e-05
1.50671e-05
-3.23996e-05
2.9516e-05
-1.74269e-05
1.85774e-05
-5.60573e-05
5.49067e-05
-1.94033e-05
2.3868e-05
-5.77533e-05
5.32887e-05
6.63941e-07
-2.20079e-06
1.53685e-06
-2.33801e-06
2.53966e-06
4.2584e-05
-4.27857e-05
-2.79618e-06
3.25781e-06
3.6198e-05
-3.66596e-05
-3.86722e-06
4.56265e-06
3.4735e-05
-3.54304e-05
-5.31788e-06
6.12611e-06
3.41646e-05
-3.49729e-05
-6.98474e-06
7.89078e-06
3.35596e-05
-3.44657e-05
-8.84018e-06
9.82772e-06
3.31122e-05
-3.40997e-05
-1.08456e-05
1.18829e-05
3.29076e-05
-3.39449e-05
-1.29232e-05
1.39449e-05
3.30589e-05
-3.40806e-05
-1.49207e-05
1.58202e-05
3.36681e-05
-3.45677e-05
-1.66122e-05
1.72724e-05
3.47139e-05
-3.53741e-05
-1.77925e-05
1.81793e-05
3.598e-05
-3.63667e-05
-1.8447e-05
1.86099e-05
3.72072e-05
-3.73701e-05
-1.86745e-05
1.86347e-05
3.8416e-05
-3.83762e-05
-1.84688e-05
1.81368e-05
3.9874e-05
-3.9542e-05
-1.75724e-05
1.66746e-05
4.20233e-05
-4.11255e-05
-1.52957e-05
1.32238e-05
4.54408e-05
-4.33689e-05
-1.02048e-05
5.62899e-06
5.06757e-05
-4.60999e-05
1.62026e-06
-9.97524e-06
5.81995e-05
-4.98445e-05
1.17328e-05
-4.33544e-06
1.81597e-05
-2.55571e-05
-2.68208e-06
8.69997e-06
-2.62491e-05
2.02312e-05
-1.41715e-05
1.97493e-05
-5.24913e-05
4.69134e-05
-2.64659e-05
3.24639e-05
-4.76202e-05
4.16221e-05
3.699e-06
-5.12526e-06
1.42626e-06
-2.57267e-06
2.91983e-06
4.30488e-05
-4.33959e-05
-3.25602e-06
3.76172e-06
3.7136e-05
-3.76417e-05
-4.3801e-06
5.06273e-06
3.61142e-05
-3.67969e-05
-5.79175e-06
6.56236e-06
3.5759e-05
-3.65296e-05
-7.3709e-06
8.2131e-06
3.53369e-05
-3.61791e-05
-9.08282e-06
9.97336e-06
3.50344e-05
-3.59249e-05
-1.0876e-05
1.17806e-05
3.49085e-05
-3.58131e-05
-1.26742e-05
1.35416e-05
3.50149e-05
-3.58823e-05
-1.43656e-05
1.51277e-05
3.53883e-05
-3.61504e-05
-1.58111e-05
1.64013e-05
3.59957e-05
-3.65859e-05
-1.68883e-05
1.72656e-05
3.67498e-05
-3.71272e-05
-1.75295e-05
1.76761e-05
3.75212e-05
-3.76678e-05
-1.76983e-05
1.75819e-05
3.82832e-05
-3.81667e-05
-1.73023e-05
1.6821e-05
3.91035e-05
-3.86223e-05
-1.60829e-05
1.5012e-05
4.00788e-05