/*--------------------------------*- C++ -*----------------------------------*\
| =========                 |                                                 |
| \\      /  F ield         | OpenFOAM: The Open Source CFD Toolbox           |
|  \\    /   O peration     | Version:  v1912                                 |
|   \\  /    A nd           | Website:  www.openfoam.com                      |
|    \\/     M anipulation  |                                                 |
\*---------------------------------------------------------------------------*/
FoamFile
{
    version     2.0;
    format      ascii;
    class       volVectorField;
    location    "0.4";
    object      U;
}
// * * * * * * * * * * * * * * * * * * * * * * * * * * * * * * * * * * * * * //

dimensions      [0 1 -1 0 0 0 0];


internalField   nonuniform List<vector> 
9072
(
(-0.0236898 0.0180496 0)
(-0.0191294 -0.00544167 0)
(0.0592441 -0.0105385 0)
(0.146915 -0.00887564 0)
(0.210506 -0.00545297 0)
(0.248023 -0.00312613 0)
(0.27204 -0.00228863 0)
(0.292959 -0.00231249 0)
(0.315098 -0.00252322 0)
(0.338392 -0.00255681 0)
(0.360879 -0.0023103 0)
(0.380266 -0.00179968 0)
(0.394501 -0.00105894 0)
(0.401645 -4.13334e-06 0)
(0.397006 0.00251064 0)
(0.371355 0.0067953 0)
(0.312326 0.0140778 0)
(0.193847 0.0250279 0)
(0.00622877 0.0196472 0)
(-0.138618 -0.00380287 0)
(-0.041083 -0.0717038 0)
(-0.180684 0.0689772 0)
(-0.290033 -0.0292442 0)
(-0.0219034 0.0428495 0)
(-0.0178509 -0.0290158 0)
(0.0624686 -0.0542312 0)
(0.149548 -0.0458585 0)
(0.212031 -0.0291041 0)
(0.250157 -0.0177179 0)
(0.276171 -0.0133641 0)
(0.299398 -0.0131376 0)
(0.323571 -0.0139753 0)
(0.348567 -0.0141153 0)
(0.372573 -0.0129752 0)
(0.39349 -0.0105771 0)
(0.409451 -0.00707727 0)
(0.418825 -0.00248988 0)
(0.420056 0.00316942 0)
(0.4122 0.0113229 0)
(0.396978 0.0262665 0)
(0.383251 0.0589426 0)
(0.349211 0.109242 0)
(0.164535 0.0911324 0)
(-0.0805918 -0.0321636 0)
(-0.350816 0.212576 0)
(-0.251315 -0.20139 0)
(-0.0212501 0.0664462 0)
(-0.0150696 -0.0534082 0)
(0.0660104 -0.0971825 0)
(0.148898 -0.0807423 0)
(0.206241 -0.0512439 0)
(0.242518 -0.0320894 0)
(0.269825 -0.0250911 0)
(0.295704 -0.024849 0)
(0.322421 -0.0261593 0)
(0.34923 -0.0261434 0)
(0.374329 -0.0239044 0)
(0.395897 -0.0195215 0)
(0.412359 -0.0132762 0)
(0.422327 -0.00526366 0)
(0.424451 0.00481949 0)
(0.417419 0.0181013 0)
(0.400358 0.037209 0)
(0.37531 0.0666437 0)
(0.363401 0.114734 0)
(0.3693 0.161385 0)
(0.172153 0.122345 0)
(-0.0581309 0.25962 0)
(-0.0469564 -0.231161 0)
(-0.0205511 0.088862 0)
(-0.0113154 -0.0789772 0)
(0.0693223 -0.138728 0)
(0.145825 -0.112499 0)
(0.197017 -0.0715159 0)
(0.23193 -0.0466079 0)
(0.261758 -0.0381638 0)
(0.291495 -0.0381166 0)
(0.321583 -0.0395572 0)
(0.350655 -0.0389348 0)
(0.377085 -0.0352754 0)
(0.399494 -0.0287642 0)
(0.416688 -0.019771 0)
(0.427538 -0.00842987 0)
(0.430958 0.00555462 0)
(0.426063 0.0231471 0)
(0.412801 0.0463154 0)
(0.393295 0.0777686 0)
(0.371682 0.117239 0)
(0.365387 0.164899 0)
(0.353201 0.230519 0)
(0.237929 0.255085 0)
(0.159508 -0.167683 0)
(-0.0195499 0.109582 0)
(-0.00700798 -0.105586 0)
(0.0714282 -0.177906 0)
(0.140308 -0.140634 0)
(0.185784 -0.0901467 0)
(0.220568 -0.0618461 0)
(0.254006 -0.053118 0)
(0.288162 -0.0532777 0)
(0.321742 -0.0543226 0)
(0.353013 -0.0525509 0)
(0.380744 -0.0471419 0)
(0.404081 -0.0383908 0)
(0.422198 -0.0266813 0)
(0.434166 -0.0121404 0)
(0.439081 0.00547712 0)
(0.436335 0.026898 0)
(0.426203 0.053421 0)
(0.41069 0.0865438 0)
(0.393743 0.126317 0)
(0.375613 0.168458 0)
(0.382094 0.235205 0)
(0.405634 0.266748 0)
(0.285015 -0.0440577 0)
(-0.0181113 0.128016 0)
(-0.00242157 -0.132693 0)
(0.0726501 -0.214005 0)
(0.133377 -0.165303 0)
(0.174555 -0.1078 0)
(0.210669 -0.0783794 0)
(0.248313 -0.0702006 0)
(0.286711 -0.0703084 0)
(0.323296 -0.0703307 0)
(0.356376 -0.066904 0)
(0.385284 -0.0595072 0)
(0.409669 -0.0484807 0)
(0.428948 -0.0341194 0)
(0.442273 -0.0165014 0)
(0.448819 0.00454639 0)
(0.448124 0.0294721 0)
(0.440596 0.0589811 0)
(0.428045 0.0937365 0)
(0.413554 0.133505 0)
(0.399835 0.176725 0)
(0.386165 0.221437 0)
(0.424903 0.261456 0)
(0.323008 0.0962828 0)
(-0.0159322 0.143354 0)
(0.00306044 -0.160016 0)
(0.0747366 -0.246468 0)
(0.126971 -0.186788 0)
(0.165142 -0.125264 0)
(0.20364 -0.0965903 0)
(0.245377 -0.0893091 0)
(0.287188 -0.0888784 0)
(0.325918 -0.0872813 0)
(0.360301 -0.0818484 0)
(0.390284 -0.072385 0)
(0.415908 -0.0591468 0)
(0.436681 -0.0422263 0)
(0.451715 -0.0216229 0)
(0.460128 0.00274265 0)
(0.46143 0.0310079 0)
(0.456052 0.0633425 0)
(0.445686 0.0997751 0)
(0.433063 0.139854 0)
(0.420526 0.182707 0)
(0.406895 0.2244 0)
(0.398217 0.259081 0)
(0.313012 0.22718 0)
(-0.0126232 0.154509 0)
(0.00896743 -0.186952 0)
(0.0737662 -0.275697 0)
(0.122326 -0.20587 0)
(0.159548 -0.143064 0)
(0.200787 -0.116522 0)
(0.245999 -0.110083 0)
(0.290321 -0.10855 0)
(0.330568 -0.104891 0)
(0.366032 -0.0973023 0)
(0.39712 -0.0858395 0)
(0.424018 -0.070511 0)
(0.446112 -0.0511339 0)
(0.462495 -0.0276424 0)
(0.472516 -4.43693e-05 0)
(0.475807 0.0315421 0)
(0.472454 0.0667595 0)
(0.463789 0.104986 0)
(0.45246 0.145533 0)
(0.440799 0.188149 0)
(0.42859 0.232455 0)
(0.401081 0.274174 0)
(0.319133 0.334994 0)
(0.00999971 -0.0190882 0)
(0.0768093 -0.0054557 0)
(0.120225 -0.00315026 0)
(0.136755 0.000267065 0)
(0.117757 0.00319446 0)
(0.0779845 0.00465579 0)
(0.0306156 0.00511356 0)
(-0.016357 0.00493306 0)
(-0.0577304 0.0041434 0)
(-0.0902539 0.00313327 0)
(-0.113635 0.00220474 0)
(-0.12815 0.0012438 0)
(-0.133991 0.000302772 0)
(-0.131874 -0.000575699 0)
(-0.12252 -0.00138821 0)
(-0.106379 -0.00216038 0)
(-0.0840196 -0.00285088 0)
(-0.0565704 -0.00339621 0)
(-0.0233139 -0.00417797 0)
(0.0118081 -0.0380257 0)
(0.0638884 -0.0262532 0)
(0.117363 -0.0193688 0)
(0.13949 0.00086384 0)
(0.118752 0.0177049 0)
(0.0754491 0.0247457 0)
(0.027654 0.0252066 0)
(-0.0160906 0.0223391 0)
(-0.0526489 0.018073 0)
(-0.0809094 0.013372 0)
(-0.100346 0.00867459 0)
(-0.111388 0.00431734 0)
(-0.115057 0.000416339 0)
(-0.112287 -0.00315786 0)
(-0.10366 -0.0065043 0)
(-0.08965 -0.00962694 0)
(-0.0707217 -0.0123978 0)
(-0.0477222 -0.014654 0)
(-0.0196737 -0.0180065 0)
(0.0113202 -0.059376 0)
(0.0677718 -0.0482815 0)
(0.128394 -0.0390961 0)
(0.156366 0.000846461 0)
(0.133055 0.0333103 0)
(0.085357 0.0456364 0)
(0.0337316 0.045811 0)
(-0.0132723 0.0403691 0)
(-0.0520503 0.0324807 0)
(-0.0813272 0.0237972 0)
(-0.101213 0.0153055 0)
(-0.112593 0.00754551 0)
(-0.11652 0.000669461 0)
(-0.113937 -0.00555037 0)
(-0.105441 -0.0112972 0)
(-0.0914496 -0.016663 0)
(-0.0723505 -0.0214562 0)
(-0.0489549 -0.0253491 0)
(-0.0202411 -0.0312323 0)
(0.00693768 -0.0782606 0)
(0.0669894 -0.0700024 0)
(0.141501 -0.064524 0)
(0.177992 0.00162721 0)
(0.143845 0.0522729 0)
(0.0872761 0.0687038 0)
(0.0314648 0.0676356 0)
(-0.0173125 0.0589903 0)
(-0.0567191 0.0470844 0)
(-0.0860214 0.0342192 0)
(-0.105579 0.0218417 0)
(-0.116509 0.0106798 0)
(-0.120031 0.00087366 0)
(-0.117159 -0.00794497 0)
(-0.108466 -0.016117 0)
(-0.0942731 -0.0237655 0)
(-0.0748191 -0.0306643 0)
(-0.0507866 -0.0363466 0)
(-0.0209872 -0.0448984 0)
(-0.00314782 -0.0930838 0)
(0.0722918 -0.0911426 0)
(0.148795 -0.101653 0)
(0.21083 0.00446533 0)
(0.158756 0.0773799 0)
(0.0894184 0.0948431 0)
(0.0282299 0.0907874 0)
(-0.022864 0.0781705 0)
(-0.0631536 0.0618478 0)
(-0.0924633 0.0445388 0)
(-0.111486 0.0281373 0)
(-0.121709 0.0135676 0)
(-0.124617 0.000885903 0)
(-0.12132 -0.0104758 0)
(-0.112348 -0.021028 0)
(-0.0979028 -0.0309872 0)
(-0.0780206 -0.0401114 0)
(-0.05316 -0.04773 0)
(-0.0219738 -0.0591506 0)
(-0.0297328 -0.108976 0)
(0.0976334 -0.119067 0)
(0.240127 -0.147012 0)
(0.255372 0.0100339 0)
(0.175784 0.111605 0)
(0.090211 0.124777 0)
(0.0231587 0.115488 0)
(-0.0303844 0.0980178 0)
(-0.0715847 0.0767727 0)
(-0.100779 0.0546846 0)
(-0.118987 0.034078 0)
(-0.128211 0.0161051 0)
(-0.130316 0.000638165 0)
(-0.126508 -0.0131654 0)
(-0.117251 -0.026041 0)
(-0.102552 -0.0383512 0)
(-0.0821614 -0.0498164 0)
(-0.0562944 -0.0596315 0)
(-0.0232391 -0.0741745 0)
(0.0309315 -0.104148 0)
(0.30192 -0.234136 0)
(0.547904 -0.155848 0)
(0.340602 0.0555306 0)
(0.190163 0.157477 0)
(0.0878261 0.158691 0)
(0.015637 0.141744 0)
(-0.0401413 0.118525 0)
(-0.0822028 0.0918445 0)
(-0.11111 0.0645419 0)
(-0.128139 0.0395086 0)
(-0.135997 0.0181761 0)
(-0.137079 8.1238e-05 0)
(-0.132678 -0.0160147 0)
(-0.123128 -0.0311486 0)
(-0.10819 -0.0458435 0)
(-0.0872939 -0.0598529 0)
(-0.0602572 -0.0721878 0)
(-0.0248824 -0.0902478 0)
(0.603102 -0.611667 0)
(0.857795 -0.374398 0)
(0.782054 -0.119257 0)
(0.442112 0.176792 0)
(0.192691 0.218145 0)
(0.0801609 0.19549 0)
(0.00528263 0.169211 0)
(-0.0521593 0.139609 0)
(-0.0950174 0.107016 0)
(-0.123461 0.0739736 0)
(-0.13883 0.0442095 0)
(-0.144854 0.0196225 0)
(-0.14467 -0.000862505 0)
(-0.139609 -0.0190584 0)
(-0.129809 -0.0363366 0)
(-0.114759 -0.0534322 0)
(-0.0934814 -0.0701988 0)
(-0.0651831 -0.0855036 0)
(-0.0269567 -0.107551 0)
(-0.000523106 0.157058 0)
(0.0126318 -0.214602 0)
(0.0613838 -0.31146 0)
(0.115186 -0.231231 0)
(0.156957 -0.167428 0)
(0.202343 -0.144248 0)
(0.250593 -0.138387 0)
(0.296528 -0.134794 0)
(0.3379 -0.128226 0)
(0.374813 -0.117907 0)
(0.408141 -0.104017 0)
(0.43836 -0.086024 0)
(0.464289 -0.0632287 0)
(0.483914 -0.0356976 0)
(0.495506 -0.00398404 0)
(0.498951 0.03156 0)
(0.495828 0.0700984 0)
(0.487716 0.110406 0)
(0.477228 0.151624 0)
(0.467054 0.19443 0)
(0.456915 0.240887 0)
(0.443794 0.297518 0)
(0.448512 0.409232 0)
(0.0237582 0.097464 0)
(0.0575707 -0.242042 0)
(0.0862037 -0.361399 0)
(0.11438 -0.278402 0)
(0.154596 -0.212103 0)
(0.200192 -0.192717 0)
(0.246893 -0.18556 0)
(0.290673 -0.1777 0)
(0.3307 -0.166648 0)
(0.367353 -0.152895 0)
(0.401982 -0.138087 0)
(0.433507 -0.118747 0)
(0.461465 -0.0929541 0)
(0.487963 -0.0601224 0)
(0.513787 -0.0187668 0)
(0.536033 0.0291173 0)
(0.545237 0.0753647 0)
(0.537719 0.119849 0)
(0.522676 0.160581 0)
(0.511234 0.20178 0)
(0.50607 0.246449 0)
(0.512147 0.295451 0)
(0.542777 0.340388 0)
(0.0430318 -0.070698 0)
(0.248339 -0.326221 0)
(0.27288 -0.335105 0)
(0.171705 -0.288821 0)
(0.191023 -0.255952 0)
(0.232036 -0.244705 0)
(0.280595 -0.238281 0)
(0.329399 -0.229178 0)
(0.377974 -0.217706 0)
(0.425848 -0.203511 0)
(0.465376 -0.175683 0)
(0.496879 -0.140006 0)
(0.516577 -0.1034 0)
(0.520698 -0.0642253 0)
(0.509269 -0.02414 0)
(0.497578 0.0123458 0)
(0.503246 0.0524547 0)
(0.51957 0.109829 0)
(0.535223 0.161188 0)
(0.55083 0.209726 0)
(0.554206 0.251435 0)
(0.55064 0.284605 0)
(0.555032 0.306795 0)
(0.0502285 -0.354775 0)
(0.295034 -0.540692 0)
(0.119298 -0.117813 0)
(0.111717 -0.256857 0)
(0.0993912 -0.255732 0)
(0.0856316 -0.256996 0)
(0.0697125 -0.250197 0)
(0.0338281 -0.231 0)
(-0.0580642 -0.191728 0)
(-0.326758 -0.143015 0)
(-0.256465 -0.249194 0)
(0.0478474 -0.239225 0)
(0.266317 -0.174106 0)
(0.40847 -0.108976 0)
(0.602606 -0.0480412 0)
(0.769083 0.0478316 0)
(0.775428 0.0999315 0)
(0.716378 0.137904 0)
(0.641709 0.147882 0)
(0.561769 0.180796 0)
(0.544343 0.227952 0)
(0.561295 0.280541 0)
(0.571084 0.313205 0)
(-0.0881062 -0.244199 0)
(-0.169069 -0.339076 0)
(-0.0169462 -0.251313 0)
(0.00936146 -0.270429 0)
(0.0113352 -0.261217 0)
(0.0157707 -0.255719 0)
(0.0116144 -0.237776 0)
(-0.00157993 -0.196008 0)
(-0.0214157 -0.076059 0)
(-0.132033 0.0028116 0)
(0.0200554 -0.542341 0)
(0.101183 -0.47687 0)
(0.176437 -0.326708 0)
(0.261555 -0.255766 0)
(0.363437 -0.229581 0)
(0.498372 -0.153897 0)
(0.678669 0.0230651 0)
(0.849713 0.19335 0)
(0.838649 0.226213 0)
(0.774703 0.267067 0)
(0.699304 0.294525 0)
(0.617764 0.298612 0)
(0.570665 0.305784 0)
(-0.0569489 -0.128627 0)
(-0.0729538 -0.39386 0)
(-0.0432323 -0.297685 0)
(-0.0149651 -0.27939 0)
(0.00445734 -0.27304 0)
(0.0191077 -0.260705 0)
(0.0305141 -0.236507 0)
(0.0454819 -0.192166 0)
(0.0966046 -0.0810727 0)
(0.18015 -0.0764111 0)
(0.145553 -0.490528 0)
(0.0174164 -0.451281 0)
(0.0472804 -0.37812 0)
(0.118919 -0.341852 0)
(0.182985 -0.321485 0)
(0.25776 -0.2552 0)
(0.385496 -0.16428 0)
(0.602477 -0.102853 0)
(0.996542 0.101787 0)
(1.26085 0.4421 0)
(0.989541 0.408083 0)
(0.732145 0.351472 0)
(0.690911 0.363543 0)
(-0.0460427 -0.0326418 0)
(-0.0576835 -0.414596 0)
(-0.0282538 -0.327376 0)
(-0.00286181 -0.302755 0)
(0.0193206 -0.293089 0)
(0.0393255 -0.278488 0)
(0.0616497 -0.257843 0)
(0.0947035 -0.229526 0)
(0.154145 -0.184897 0)
(0.287252 -0.172975 0)
(0.285809 -0.344563 0)
(0.197871 -0.416315 0)
(0.179148 -0.427422 0)
(0.20159 -0.392567 0)
(0.232697 -0.369417 0)
(0.285988 -0.347523 0)
(0.402751 -0.326218 0)
(0.599965 -0.353034 0)
(0.852913 -0.320216 0)
(1.19202 0.138931 0)
(1.46291 0.69012 0)
(1.25094 0.696369 0)
(0.884915 0.446639 0)
(-0.0254685 0.0315443 0)
(-0.0359397 -0.435699 0)
(-0.0112284 -0.350751 0)
(0.011062 -0.325396 0)
(0.0325612 -0.314366 0)
(0.0545098 -0.300991 0)
(0.0801291 -0.28623 0)
(0.11366 -0.271073 0)
(0.159361 -0.260687 0)
(0.229042 -0.269558 0)
(0.271938 -0.321526 0)
(0.266817 -0.3738 0)
(0.242124 -0.411163 0)
(0.235925 -0.409206 0)
(0.254445 -0.402687 0)
(0.293526 -0.411274 0)
(0.364026 -0.455431 0)
(0.491655 -0.568488 0)
(0.667802 -0.566004 0)
(0.822202 -0.0834004 0)
(0.966339 0.515538 0)
(1.11305 0.831704 0)
(1.08497 0.748645 0)
(0.00192855 0.0430742 0)
(-0.00856257 -0.449715 0)
(0.0071323 -0.369553 0)
(0.0249652 -0.345687 0)
(0.0444797 -0.335429 0)
(0.0659317 -0.324483 0)
(0.0907484 -0.314514 0)
(0.12032 -0.3072 0)
(0.155677 -0.305923 0)
(0.193986 -0.317394 0)
(0.224522 -0.344357 0)
(0.238978 -0.373866 0)
(0.238037 -0.398391 0)
(0.234558 -0.411354 0)
(0.243321 -0.424006 0)
(0.264693 -0.450582 0)
(0.295161 -0.511296 0)
(0.318584 -0.65998 0)
(0.324602 -0.678735 0)
(0.395067 -0.129781 0)
(0.429011 0.401522 0)
(0.550302 0.677975 0)
(0.691973 0.693389 0)
(0.00849664 0.0176695 0)
(0.0160231 -0.456208 0)
(0.0221504 -0.382797 0)
(0.0365935 -0.363065 0)
(0.0541447 -0.355021 0)
(0.0740875 -0.346713 0)
(0.0966945 -0.340159 0)
(0.122043 -0.336595 0)
(0.1494 -0.338009 0)
(0.176272 -0.346745 0)
(0.197546 -0.363145 0)
(0.209887 -0.382051 0)
(0.214885 -0.398745 0)
(0.216995 -0.413669 0)
(0.219238 -0.43197 0)
(0.220097 -0.461402 0)
(0.212345 -0.514075 0)
(0.173866 -0.618014 0)
(0.0428973 -0.703652 0)
(0.126333 -0.124682 0)
(0.150364 0.337549 0)
(0.195923 0.593625 0)
(0.223307 0.59826 0)
(0.0106797 -0.0154729 0)
(0.0278411 -0.46032 0)
(0.0318538 -0.393013 0)
(0.0450869 -0.378573 0)
(0.0612935 -0.37307 0)
(0.0797293 -0.367112 0)
(0.100118 -0.362781 0)
(0.121972 -0.360907 0)
(0.144299 -0.362493 0)
(0.165238 -0.368395 0)
(0.182265 -0.378316 0)
(0.193476 -0.390295 0)
(0.19925 -0.402308 0)
(0.200672 -0.414323 0)
(0.197159 -0.42854 0)
(0.185105 -0.448656 0)
(0.155597 -0.478913 0)
(0.0924225 -0.519853 0)
(-0.0751199 -0.58391 0)
(-0.0906493 -0.232361 0)
(0.063628 0.261688 0)
(0.180159 0.551743 0)
(0.322552 0.491074 0)
(0.00983122 -0.047992 0)
(0.0309345 -0.466141 0)
(0.0372184 -0.403315 0)
(0.0505751 -0.393337 0)
(0.0662141 -0.390028 0)
(0.0835727 -0.385901 0)
(0.102246 -0.382935 0)
(0.121624 -0.381683 0)
(0.140804 -0.38263 0)
(0.158489 -0.386066 0)
(0.173168 -0.391686 0)
(0.18364 -0.398529 0)
(0.189316 -0.40555 0)
(0.189796 -0.412317 0)
(0.183774 -0.419127 0)
(0.167871 -0.426244 0)
(0.135468 -0.432301 0)
(0.0756151 -0.431225 0)
(-0.0253022 -0.40463 0)
(-0.178179 -0.2915 0)
(-0.0806955 0.0508 0)
(0.181454 0.341367 0)
(0.400563 0.350272 0)
(0.00804823 -0.0768082 0)
(0.0302562 -0.475415 0)
(0.0396332 -0.415043 0)
(0.0538094 -0.408203 0)
(0.0694655 -0.406448 0)
(0.0862475 -0.403573 0)
(0.103816 -0.401376 0)
(0.121634 -0.400197 0)
(0.138978 -0.400255 0)
(0.154929 -0.401598 0)
(0.168462 -0.403933 0)
(0.17864 -0.406623 0)
(0.184714 -0.408877 0)
(0.185898 -0.409966 0)
(0.180888 -0.409085 0)
(0.167439 -0.404734 0)
(0.142281 -0.393527 0)
(0.102033 -0.368265 0)
(0.0468225 -0.31526 0)
(-0.00719163 -0.21229 0)
(-0.0220138 -0.0576521 0)
(0.0647989 0.101044 0)
(0.219573 0.195498 0)
(0.00636607 -0.101662 0)
(0.0284344 -0.48771 0)
(0.0404638 -0.428459 0)
(0.0556352 -0.423616 0)
(0.0716328 -0.42279 0)
(0.0882556 -0.420663 0)
(0.105272 -0.41882 0)
(0.122272 -0.417445 0)
(0.138723 -0.416599 0)
(0.153972 -0.416199 0)
(0.167294 -0.415929 0)
(0.177973 -0.41524 0)
(0.185329 -0.413394 0)
(0.188649 -0.409481 0)
(0.187048 -0.402246 0)
(0.179448 -0.389689 0)
(0.164921 -0.36846 0)
(0.143809 -0.333204 0)
(0.120267 -0.276657 0)
(0.10603 -0.192771 0)
(0.119588 -0.0865566 0)
(0.171494 0.0192618 0)
(0.246751 0.0962153 0)
(0.00510084 -0.123314 0)
(0.0266489 -0.502184 0)
(0.0406134 -0.443333 0)
(0.056712 -0.439706 0)
(0.0731945 -0.439335 0)
(0.0899513 -0.43758 0)
(0.106849 -0.43583 0)
(0.123605 -0.43415 0)
(0.139849 -0.432496 0)
(0.15513 -0.430701 0)
(0.168941 -0.428419 0)
(0.180775 -0.425117 0)
(0.19014 -0.420074 0)
(0.196562 -0.41234 0)
(0.199601 -0.400618 0)
(0.198982 -0.383061 0)
(0.19498 -0.357087 0)
(0.189165 -0.319392 0)
(0.185475 -0.266738 0)
(0.190798 -0.19822 0)
(0.212984 -0.118646 0)
(0.255166 -0.0391327 0)
(0.311502 0.0291664 0)
(0.00428666 -0.142718 0)
(0.0252743 -0.518081 0)
(0.0405574 -0.459334 0)
(0.0574451 -0.456466 0)
(0.0744615 -0.456238 0)
(0.0915481 -0.454618 0)
(0.108648 -0.452828 0)
(0.125582 -0.45084 0)
(0.142112 -0.448539 0)
(0.157942 -0.445702 0)
(0.172745 -0.441964 0)
(0.186204 -0.436808 0)
(0.198035 -0.429542 0)
(0.20801 -0.419273 0)
(0.21603 -0.404845 0)
(0.222265 -0.384784 0)
(0.227429 -0.357307 0)
(0.233148 -0.320538 0)
(0.242262 -0.273171 0)
(0.2586 -0.215627 0)
(0.28561 -0.151148 0)
(0.324071 -0.0854315 0)
(0.370794 -0.0239607 0)
(0.0038612 -0.160748 0)
(0.0243531 -0.534853 0)
(0.0405035 -0.476192 0)
(0.0580487 -0.473859 0)
(0.0756052 -0.473612 0)
(0.0931491 -0.472014 0)
(0.110677 -0.47015 0)
(0.12809 -0.467925 0)
(0.145246 -0.465176 0)
(0.161976 -0.46165 0)
(0.178104 -0.45698 0)
(0.193472 -0.450676 0)
(0.207971 -0.442101 0)
(0.221575 -0.430461 0)
(0.234407 -0.414793 0)
(0.246839 -0.393987 0)
(0.259649 -0.366854 0)
(0.274158 -0.332332 0)
(0.292233 -0.289903 0)
(0.315966 -0.240119 0)
(0.346885 -0.184923 0)
(0.384955 -0.127325 0)
(0.428135 -0.0702381 0)
(0.00372483 -0.178154 0)
(0.0238064 -0.552103 0)
(0.0405455 -0.493712 0)
(0.058657 -0.491833 0)
(0.0767366 -0.491512 0)
(0.0948037 -0.489924 0)
(0.112895 -0.488028 0)
(0.13097 -0.485685 0)
(0.148965 -0.482708 0)
(0.166813 -0.478837 0)
(0.184454 -0.473717 0)
(0.201859 -0.466894 0)
(0.219052 -0.457801 0)
(0.236147 -0.445755 0)
(0.253399 -0.429977 0)
(0.271258 -0.40963 0)
(0.290428 -0.383899 0)
(0.311901 -0.352126 0)
(0.336872 -0.314047 0)
(0.366478 -0.270007 0)
(0.401358 -0.221031 0)
(0.441152 -0.168631 0)
(0.484328 -0.114318 0)
(0.00383312 -0.195587 0)
(0.023557 -0.569541 0)
(0.040738 -0.511775 0)
(0.0593515 -0.51032 0)
(0.0779201 -0.509933 0)
(0.0965196 -0.508398 0)
(0.115221 -0.506559 0)
(0.134034 -0.504251 0)
(0.152963 -0.501279 0)
(0.172019 -0.497391 0)
(0.191233 -0.492258 0)
(0.210675 -0.485467 0)
(0.230468 -0.476522 0)
(0.250818 -0.464848 0)
(0.272054 -0.449817 0)
(0.294643 -0.430777 0)
(0.3192 -0.407115 0)
(0.346473 -0.378342 0)
(0.377237 -0.344217 0)
(0.412124 -0.304813 0)
(0.451355 -0.260493 0)
(0.494453 -0.211815 0)
(0.54012 -0.159366 0)
(0.00418274 -0.213616 0)
(0.0235664 -0.586991 0)
(0.0411111 -0.53031 0)
(0.0601512 -0.529254 0)
(0.0791464 -0.528836 0)
(0.0982381 -0.527426 0)
(0.117527 -0.525755 0)
(0.137068 -0.523645 0)
(0.156922 -0.520912 0)
(0.177166 -0.517318 0)
(0.197903 -0.512566 0)
(0.219274 -0.506288 0)
(0.241481 -0.498056 0)
(0.264795 -0.48739 0)
(0.289588 -0.473775 0)
(0.316328 -0.456681 0)
(0.345568 -0.435595 0)
(0.377908 -0.41007 0)
(0.413901 -0.379787 0)
(0.453925 -0.344558 0)
(0.498029 -0.304252 0)
(0.545724 -0.258728 0)
(0.595865 -0.20784 0)
(0.00471536 -0.232675 0)
(0.0238166 -0.604382 0)
(0.0416779 -0.549248 0)
(0.0610326 -0.548551 0)
(0.0803536 -0.548152 0)
(0.0998514 -0.546952 0)
(0.119653 -0.545569 0)
(0.139852 -0.543827 0)
(0.160554 -0.541555 0)
(0.181886 -0.538539 0)
(0.204003 -0.534515 0)
(0.227109 -0.529167 0)
(0.251463 -0.522132 0)
(0.277392 -0.513008 0)
(0.305305 -0.501366 0)
(0.335679 -0.486756 0)
(0.369044 -0.468714 0)
(0.405947 -0.446779 0)
(0.446859 -0.420515 0)
(0.492076 -0.389495 0)
(0.54162 -0.353194 0)
(0.595074 -0.310917 0)
(0.651436 -0.261846 0)
(0.00530834 -0.252981 0)
(0.02432 -0.62175 0)
(0.0424471 -0.568473 0)
(0.0619513 -0.568082 0)
(0.0814666 -0.567773 0)
(0.101254 -0.566881 0)
(0.121462 -0.565914 0)
(0.14221 -0.564705 0)
(0.163635 -0.563098 0)
(0.185896 -0.560907 0)
(0.20919 -0.557909 0)
(0.233764 -0.553844 0)
(0.259931 -0.548412 0)
(0.288064 -0.541283 0)
(0.318613 -0.532098 0)
(0.352086 -0.520466 0)
(0.389037 -0.505955 0)
(0.430037 -0.488076 0)
(0.475591 -0.46628 0)
(0.526057 -0.439924 0)
(0.581563 -0.408159 0)
(0.641857 -0.369806 0)
(0.706134 -0.323392 0)
(0.00580345 -0.274536 0)
(0.0251599 -0.639289 0)
(0.043409 -0.58779 0)
(0.0628422 -0.58769 0)
(0.0824076 -0.587573 0)
(0.102356 -0.587096 0)
(0.122839 -0.586673 0)
(0.143993 -0.586148 0)
(0.165974 -0.585383 0)
(0.188964 -0.584223 0)
(0.213184 -0.582495 0)
(0.238919 -0.579998 0)
(0.266519 -0.576502 0)
(0.296398 -0.571745 0)
(0.329052 -0.565437 0)
(0.365037 -0.557247 0)
(0.40497 -0.546777 0)
(0.449511 -0.533536 0)
(0.499298 -0.516897 0)
(0.554888 -0.496052 0)
(0.616674 -0.469878 0)
(0.684729 -0.436762 0)
(0.758593 -0.394556 0)
(0.00601608 -0.297136 0)
(0.026344 -0.657236 0)
(0.0444235 -0.606902 0)
(0.0635756 -0.607201 0)
(0.083056 -0.607413 0)
(0.103033 -0.60746 0)
(0.123643 -0.607696 0)
(0.145028 -0.607981 0)
(0.167356 -0.6082 0)
(0.190828 -0.608237 0)
(0.215687 -0.607972 0)
(0.242242 -0.607269 0)
(0.270868 -0.605965 0)
(0.302009 -0.603876 0)
(0.3362 -0.60079 0)
(0.374055 -0.596451 0)
(0.416274 -0.590526 0)
(0.463653 -0.582566 0)
(0.517041 -0.571948 0)
(0.577316 -0.557788 0)
(0.645319 -0.538782 0)
(0.721694 -0.512954 0)
(0.806624 -0.477466 0)
(0.00589983 -0.320431 0)
(0.0275582 -0.675584 0)
(0.0451592 -0.625564 0)
(0.0639396 -0.626488 0)
(0.0832273 -0.627168 0)
(0.103101 -0.62783 0)
(0.123677 -0.628808 0)
(0.145098 -0.629994 0)
(0.16754 -0.631305 0)
(0.191223 -0.632667 0)
(0.21641 -0.634012 0)
(0.24342 -0.635267 0)
(0.272643 -0.636342 0)
(0.304538 -0.637135 0)
(0.339671 -0.637529 0)
(0.378706 -0.637368 0)
(0.422431 -0.63643 0)
(0.471793 -0.634384 0)
(0.527896 -0.630719 0)
(0.592019 -0.624629 0)
(0.665621 -0.614809 0)
(0.750209 -0.599091 0)
(0.847075 -0.574051 0)
(0.005728 -0.344139 0)
(0.0283204 -0.69392 0)
(0.0452944 -0.643744 0)
(0.0637459 -0.645492 0)
(0.0827584 -0.646721 0)
(0.102397 -0.648057 0)
(0.122778 -0.649831 0)
(0.144041 -0.651974 0)
(0.16637 -0.654446 0)
(0.189998 -0.657217 0)
(0.215194 -0.660269 0)
(0.242284 -0.663586 0)
(0.271656 -0.667151 0)
(0.303778 -0.670956 0)
(0.339227 -0.67499 0)
(0.378702 -0.679227 0)
(0.423062 -0.683606 0)
(0.473385 -0.687999 0)
(0.53101 -0.692143 0)
(0.597638 -0.695521 0)
(0.675434 -0.697117 0)
(0.767038 -0.694959 0)
(0.875477 -0.685459 0)
(0.0058172 -0.368265 0)
(0.0284029 -0.711613 0)
(0.044744 -0.661581 0)
(0.0629231 -0.664184 0)
(0.081578 -0.665961 0)
(0.100849 -0.667992 0)
(0.120866 -0.670585 0)
(0.141778 -0.673713 0)
(0.163771 -0.67738 0)
(0.187076 -0.681598 0)
(0.211958 -0.686394 0)
(0.238737 -0.691806 0)
(0.267792 -0.697895 0)
(0.299581 -0.704745 0)
(0.334676 -0.712462 0)
(0.373777 -0.721174 0)
(0.417768 -0.731021 0)
(0.467796 -0.742152 0)
(0.525354 -0.75469 0)
(0.592466 -0.768645 0)
(0.671952 -0.783712 0)
(0.767724 -0.798799 0)
(0.885138 -0.811157 0)
(0.00618756 -0.39296 0)
(0.0278806 -0.728125 0)
(0.0436139 -0.67918 0)
(0.0614733 -0.6825 0)
(0.0796525 -0.684766 0)
(0.0984016 -0.687476 0)
(0.117871 -0.690882 0)
(0.138218 -0.694994 0)
(0.159626 -0.699851 0)
(0.182315 -0.705503 0)
(0.206537 -0.712017 0)
(0.232592 -0.719488 0)
(0.260836 -0.728045 0)
(0.291699 -0.737862 0)
(0.325713 -0.749166 0)
(0.36354 -0.762242 0)
(0.406025 -0.777452 0)
(0.45427 -0.79526 0)
(0.509757 -0.816263 0)
(0.5746 -0.841223 0)
(0.651976 -0.871017 0)
(0.746736 -0.906348 0)
(0.866495 -0.947046 0)
(0.00680178 -0.418369 0)
(0.0269111 -0.743138 0)
(0.0420513 -0.696495 0)
(0.0594271 -0.700296 0)
(0.0769621 -0.70298 0)
(0.0950042 -0.706325 0)
(0.113718 -0.710511 0)
(0.133264 -0.715572 0)
(0.153818 -0.721575 0)
(0.175582 -0.728599 0)
(0.198784 -0.73675 0)
(0.223693 -0.746169 0)
(0.250626 -0.757047 0)
(0.279957 -0.769637 0)
(0.312154 -0.784276 0)
(0.347791 -0.801393 0)
(0.387586 -0.821544 0)
(0.432458 -0.845482 0)
(0.483651 -0.874293 0)
(0.543005 -0.909576 0)
(0.61338 -0.953614 0)
(0.699389 -1.00963 0)
(0.809195 -1.08215 0)
(0.00780502 -0.444831 0)
(0.0256791 -0.756484 0)
(0.0402008 -0.713345 0)
(0.0568594 -0.717367 0)
(0.0735503 -0.720409 0)
(0.0906825 -0.724332 0)
(0.108427 -0.729243 0)
(0.126938 -0.735193 0)
(0.146376 -0.742263 0)
(0.166918 -0.750558 0)
(0.188759 -0.76021 0)
(0.212125 -0.771398 0)
(0.237277 -0.784362 0)
(0.264518 -0.79942 0)
(0.294221 -0.816993 0)
(0.326823 -0.83761 0)
(0.362829 -0.861949 0)
(0.402852 -0.890967 0)
(0.447707 -0.926129 0)
(0.498554 -0.969658 0)
(0.557046 -1.02489 0)
(0.625751 -1.09724 0)
(0.709577 -1.19646 0)
(0.00931325 -0.473 0)
(0.0243918 -0.768034 0)
(0.0381836 -0.729455 0)
(0.0538672 -0.733485 0)
(0.0695084 -0.73685 0)
(0.0855322 -0.741293 0)
(0.102107 -0.746863 0)
(0.119371 -0.753619 0)
(0.13746 -0.761651 0)
(0.156518 -0.771075 0)
(0.1767 -0.782046 0)
(0.198178 -0.794766 0)
(0.221151 -0.809511 0)
(0.245839 -0.826641 0)
(0.272491 -0.846618 0)
(0.301363 -0.870004 0)
(0.332709 -0.897514 0)
(0.366812 -0.930199 0)
(0.403984 -0.96967 0)
(0.444471 -1.01825 0)
(0.488197 -1.07933 0)
(0.534432 -1.15863 0)
(0.581158 -1.26724 0)
(0.011218 -0.503571 0)
(0.0231651 -0.777668 0)
(0.0360483 -0.744505 0)
(0.0505181 -0.748427 0)
(0.064921 -0.752107 0)
(0.0796601 -0.757019 0)
(0.0948931 -0.763179 0)
(0.110732 -0.770646 0)
(0.12728 -0.779511 0)
(0.144644 -0.789898 0)
(0.162933 -0.80197 0)
(0.182269 -0.815949 0)
(0.202783 -0.832124 0)
(0.224597 -0.850864 0)
(0.247819 -0.872622 0)
(0.272522 -0.897936 0)
(0.298756 -0.927512 0)
(0.326534 -0.962386 0)
(0.355714 -1.00402 0)
(0.385762 -1.0543 0)
(0.415307 -1.11564 0)
(0.441116 -1.1915 0)
(0.455567 -1.28738 0)
(0.0132182 -0.53687 0)
(0.0219482 -0.785337 0)
(0.0337664 -0.758204 0)
(0.046846 -0.762011 0)
(0.0598652 -0.766016 0)
(0.0731862 -0.771356 0)
(0.0869488 -0.778035 0)
(0.101233 -0.786112 0)
(0.116111 -0.795675 0)
(0.131651 -0.806847 0)
(0.147921 -0.819795 0)
(0.16499 -0.834746 0)
(0.182917 -0.851983 0)
(0.201723 -0.871844 0)
(0.221389 -0.894737 0)
(0.241853 -0.921167 0)
(0.263021 -0.951808 0)
(0.284692 -0.987563 0)
(0.306414 -1.02957 0)
(0.327319 -1.0791 0)
(0.345798 -1.13735 0)
(0.358687 -1.20488 0)
(0.35952 -1.28007 0)
(0.014932 -0.572611 0)
(0.0205857 -0.791167 0)
(0.0312832 -0.770351 0)
(0.0428946 -0.774118 0)
(0.0544546 -0.778466 0)
(0.0662879 -0.784202 0)
(0.0785169 -0.791336 0)
(0.0911917 -0.799926 0)
(0.104353 -0.810056 0)
(0.118038 -0.821846 0)
(0.132276 -0.835459 0)
(0.147083 -0.851108 0)
(0.162445 -0.869045 0)
(0.1783 -0.889559 0)
(0.194537 -0.913011 0)
(0.211003 -0.939869 0)
(0.227472 -0.970721 0)
(0.243574 -1.00629 0)
(0.258731 -1.04741 0)
(0.272109 -1.09496 0)
(0.282558 -1.14944 0)
(0.288622 -1.21021 0)
(0.288824 -1.27359 0)
(0.0160222 -0.609872 0)
(0.0189341 -0.795506 0)
(0.0285614 -0.780882 0)
(0.0387244 -0.78472 0)
(0.0488203 -0.789424 0)
(0.0591625 -0.795528 0)
(0.0698589 -0.803059 0)
(0.0809327 -0.812075 0)
(0.0923995 -0.822656 0)
(0.104269 -0.834916 0)
(0.116532 -0.849001 0)
(0.129159 -0.865096 0)
(0.142076 -0.883408 0)
(0.155162 -0.904178 0)
(0.168247 -0.927718 0)
(0.181093 -0.954424 0)
(0.193351 -0.984764 0)
(0.20454 -1.0193 0)
(0.214036 -1.0587 0)
(0.221079 -1.10368 0)
(0.224939 -1.15476 0)
(0.225494 -1.21202 0)
(0.224533 -1.27429 0)
(0.0162785 -0.647275 0)
(0.0169225 -0.798843 0)
(0.0255829 -0.789845 0)
(0.0343679 -0.793852 0)
(0.0430368 -0.798904 0)
(0.0519223 -0.805346 0)
(0.061121 -0.813221 0)
(0.0706356 -0.822586 0)
(0.0804608 -0.83352 0)
(0.0905824 -0.846119 0)
(0.100963 -0.860508 0)
(0.111536 -0.876833 0)
(0.122191 -0.895258 0)
(0.132769 -0.915973 0)
(0.143049 -0.939222 0)
(0.152715 -0.9653 0)
(0.161329 -0.994545 0)
(0.168327 -1.02739 0)
(0.172991 -1.06436 0)
(0.174466 -1.10614 0)
(0.171974 -1.15356 0)
(0.165307 -1.20796 0)
(0.155833 -1.27175 0)
(0.0156145 -0.683237 0)
(0.0146137 -0.801693 0)
(0.0223813 -0.797376 0)
(0.0298605 -0.801606 0)
(0.0371585 -0.806976 0)
(0.0446447 -0.813717 0)
(0.0524028 -0.821884 0)
(0.060422 -0.831533 0)
(0.0686824 -0.842731 0)
(0.0771512 -0.855561 0)
(0.0857719 -0.870117 0)
(0.0944565 -0.886508 0)
(0.103074 -0.904853 0)
(0.111437 -0.925279 0)
(0.119284 -0.947947 0)
(0.12625 -0.973037 0)
(0.131837 -1.00075 0)
(0.135394 -1.03135 0)
(0.136073 -1.06522 0)
(0.132799 -1.10288 0)
(0.12431 -1.14525 0)
(0.109238 -1.19409 0)
(0.0860532 -1.25326 0)
(0.0141502 -0.716254 0)
(0.0121934 -0.804399 0)
(0.0190488 -0.803587 0)
(0.0252598 -0.808049 0)
(0.0312429 -0.813693 0)
(0.0373967 -0.820692 0)
(0.0437791 -0.829104 0)
(0.05037 -0.838978 0)
(0.0571394 -0.85037 0)
(0.0640433 -0.863343 0)
(0.0710154 -0.877965 0)
(0.0779587 -0.894306 0)
(0.0847319 -0.912435 0)
(0.0911349 -0.932412 0)
(0.0968924 -0.954307 0)
(0.10162 -0.978179 0)
(0.104796 -1.00407 0)
(0.105723 -1.03206 0)
(0.103457 -1.06227 0)
(0.0967138 -1.09492 0)
(0.0837364 -1.13049 0)
(0.0620062 -1.17002 0)
(0.027403 -1.21567 0)
(0.0122071 -0.745353 0)
(0.00976331 -0.806992 0)
(0.0155686 -0.808537 0)
(0.0204748 -0.813213 0)
(0.0251569 -0.819084 0)
(0.0300027 -0.826298 0)
(0.0350313 -0.834904 0)
(0.040214 -0.844944 0)
(0.0455175 -0.856464 0)
(0.050896 -0.869508 0)
(0.0562825 -0.884119 0)
(0.0615824 -0.900331 0)
(0.0666607 -0.918164 0)
(0.0713285 -0.937612 0)
(0.075327 -0.958654 0)
(0.0782931 -0.981228 0)
(0.0797298 -1.00522 0)
(0.0789595 -1.03049 0)
(0.0750296 -1.05683 0)
(0.0665914 -1.08403 0)
(0.0516968 -1.11184 0)
(0.0274663 -1.14002 0)
(-0.0105152 -1.16816 0)
(0.00979425 -0.770257 0)
(0.00730761 -0.809299 0)
(0.0118402 -0.812354 0)
(0.0153491 -0.817221 0)
(0.0187178 -0.823283 0)
(0.0222437 -0.83067 0)
(0.0259075 -0.839421 0)
(0.0296791 -0.849577 0)
(0.0335276 -0.861173 0)
(0.037413 -0.874242 0)
(0.0412776 -0.888803 0)
(0.045041 -0.904859 0)
(0.0485911 -0.922387 0)
(0.0517711 -0.941324 0)
(0.054366 -0.96157 0)
(0.056074 -0.982949 0)